unknown system                          
   3.62000000000000     
     0.500000    0.500000    0.000000
     0.000000    0.500000    0.500000
     0.500000    0.000000    0.500000
   1
Direct
  0.000000  0.000000  0.000000
 
   18   18   18
  178.03      164.13      128.25      84.042      45.126      19.394      7.4827      4.2719      3.3172      3.0432    
  3.3172      4.2719      7.4827      19.394      45.126      84.042      128.25      164.13      164.13      139.31    
  99.709      59.152      28.307      11.151      5.0803      3.6305      3.0586      3.0600      3.6330      5.0798    
  11.147      28.307      59.163      99.723      139.32      164.13      128.25      99.709      64.635      34.125    
  14.580      6.1311      3.9515      3.1138      2.8750      3.1121      3.9510      6.1314      14.577      34.122    
  64.648      99.743      128.28      139.32      84.042      59.152      34.125      15.987      6.9227      4.1895    
  3.1902      2.7650      2.7633      3.1881      4.1903      6.9223      15.981      34.125      59.174      84.079    
  99.743      99.723      45.126      28.307      14.580      6.9227      4.2812      3.2464      2.7107      2.5611    
  2.7100      3.2473      4.2827      6.9217      14.579      28.312      45.138      59.174      64.648      59.163    
  19.394      11.151      6.1311      4.1895      3.2464      2.6958      2.4688      2.4684      2.6954      3.2475    
  4.1911      6.1310      11.150      19.395      28.312      34.125      34.122      28.307      7.4827      5.0803    
  3.9515      3.1902      2.7107      2.4688      2.3970      2.4685      2.7097      3.1887      3.9506      5.0812    
  7.4854      11.150      14.579      15.981      14.577      11.147      4.2719      3.6305      3.1138      2.7650    
  2.5611      2.4684      2.4685      2.5610      2.7641      3.1129      3.6313      4.2741      5.0812      6.1310    
  6.9217      6.9223      6.1314      5.0798      3.3172      3.0586      2.8750      2.7633      2.7100      2.6954    
  2.7097      2.7641      2.8773      3.0605      3.3168      3.6313      3.9506      4.1911      4.2827      4.1903    
  3.9510      3.6330      3.0432      3.0600      3.1121      3.1881      3.2473      3.2475      3.1887      3.1129    
  3.0605      3.0435      3.0605      3.1129      3.1887      3.2475      3.2473      3.1881      3.1121      3.0600    
  3.3172      3.6330      3.9510      4.1903      4.2827      4.1911      3.9506      3.6313      3.3168      3.0605    
  2.8773      2.7641      2.7097      2.6954      2.7100      2.7633      2.8750      3.0586      4.2719      5.0798    
  6.1314      6.9223      6.9217      6.1310      5.0812      4.2741      3.6313      3.1129      2.7641      2.5610    
  2.4685      2.4684      2.5611      2.7650      3.1138      3.6305      7.4827      11.147      14.577      15.981    
  14.579      11.150      7.4854      5.0812      3.9506      3.1887      2.7097      2.4685      2.3970      2.4688    
  2.7107      3.1902      3.9515      5.0803      19.394      28.307      34.122      34.125      28.312      19.395    
  11.150      6.1310      4.1911      3.2475      2.6954      2.4684      2.4688      2.6958      3.2464      4.1895    
  6.1311      11.151      45.126      59.163      64.648      59.174      45.138      28.312      14.579      6.9217    
  4.2827      3.2473      2.7100      2.5611      2.7107      3.2464      4.2812      6.9227      14.580      28.307    
  84.042      99.723      99.743      84.079      59.174      34.125      15.981      6.9223      4.1903      3.1881    
  2.7633      2.7650      3.1902      4.1895      6.9227      15.987      34.125      59.152      128.25      139.32    
  128.28      99.743      64.648      34.122      14.577      6.1314      3.9510      3.1121      2.8750      3.1138    
  3.9515      6.1311      14.580      34.125      64.635      99.709      164.13      164.13      139.32      99.723    
  59.163      28.307      11.147      5.0798      3.6330      3.0600      3.0586      3.6305      5.0803      11.151    
  28.307      59.152      99.709      139.31      164.10      139.34      99.755      59.180      28.307      11.145    
  5.0830      3.6330      3.0558      3.0603      3.6377      5.0798      11.145      28.317      59.179      99.719    
  139.28      164.07      139.34      108.53      70.590      37.450      16.000      6.5201      4.0613      3.1821    
  2.9290      3.1822      4.0601      6.5221      16.011      37.459      70.569      108.47      139.28      151.24    
  99.755      70.590      41.056      19.282      7.9850      4.4265      3.3275      2.8566      2.8571      3.3264    
  4.4244      7.9904      19.294      41.056      70.562      99.714      118.05      118.07      59.180      37.450    
  19.282      8.6126      4.6765      3.4517      2.8237      2.6520      2.8286      3.4510      4.6720      8.6164    
  19.292      37.449      59.163      77.118      84.117      77.136      28.307      16.000      7.9850      4.6765    
  3.5040      2.8214      2.5413      2.5429      2.8228      3.5013      4.6748      7.9910      16.009      28.306    
  41.169      49.446      49.453      41.180      11.145      6.5201      4.4265      3.4517      2.8214      2.5095    
  2.4207      2.5091      2.8206      3.4513      4.4281      6.5234      11.148      17.625      23.402      25.720    
  23.404      17.625      5.0830      4.0613      3.3275      2.8237      2.5413      2.4207      2.4217      2.5435    
  2.8252      3.3263      4.0579      5.0811      6.9662      9.3744      11.087      11.083      9.3680      6.9632    
  3.6330      3.1821      2.8566      2.6520      2.5429      2.5091      2.5435      2.6533      2.8576      3.1816    
  3.6314      4.1537      4.6948      5.2284      5.4645      5.2276      4.6943      4.1546      3.0558      2.9290    
  2.8571      2.8286      2.8228      2.8206      2.8252      2.8576      2.9342      3.0601      3.2369      3.4513    
  3.6565      3.7844      3.7859      3.6609      3.4564      3.2381      3.0603      3.1822      3.3264      3.4510    
  3.5013      3.4513      3.3263      3.1816      3.0601      2.9764      2.9324      2.9290      2.9512      2.9657    
  2.9527      2.9299      2.9319      2.9756      3.6377      4.0601      4.4244      4.6720      4.6748      4.4281    
  4.0579      3.6314      3.2369      2.9324      2.7262      2.6055      2.5533      2.5539      2.6051      2.7226    
  2.9295      3.2397      5.0798      6.5221      7.9904      8.6164      7.9910      6.5234      5.0811      4.1537    
  3.4513      2.9290      2.6055      2.4375      2.3855      2.4368      2.6057      2.9307      3.4531      4.1539    
  11.145      16.011      19.294      19.292      16.009      11.148      6.9662      4.6948      3.6565      2.9512    
  2.5533      2.3855      2.3842      2.5520      2.9538      3.6611      4.6956      6.9624      28.317      37.459    
  41.056      37.449      28.306      17.625      9.3744      5.2284      3.7844      2.9657      2.5539      2.4368    
  2.5520      2.9657      3.7856      5.2271      9.3723      17.629      59.179      70.569      70.562      59.163    
  41.169      23.402      11.087      5.4645      3.7859      2.9527      2.6051      2.6057      2.9538      3.7856    
  5.4612      11.083      23.405      41.182      99.719      108.47      99.714      77.118      49.446      25.720    
  11.083      5.2276      3.6609      2.9299      2.7226      2.9307      3.6611      5.2271      11.083      25.721    
  49.449      77.124      139.28      139.28      118.05      84.117      49.453      23.404      9.3680      4.6943    
  3.4564      2.9319      2.9295      3.4531      4.6956      9.3723      23.405      49.449      84.111      118.04    
  164.07      151.24      118.07      77.136      41.180      17.625      6.9632      4.1546      3.2381      2.9756    
  3.2397      4.1539      6.9624      17.629      41.182      77.124      118.04      151.22      128.22      99.700    
  64.647      34.141      14.588      6.1322      3.9532      3.1155      2.8750      3.1129      3.9534      6.1323    
  14.577      34.127      64.658      99.748      128.27      139.29      99.700      70.568      41.074      19.308    
  7.9941      4.4257      3.3297      2.8597      2.8565      3.3266      4.4283      7.9923      19.293      41.062    
  70.584      99.737      118.04      118.02      64.647      41.074      21.211      9.3415      4.8379      3.5244    
  2.8707      2.6880      2.8702      3.5272      4.8401      9.3331      21.194      41.066      64.660      84.097    
  91.646      84.079      34.141      19.308      9.3415      5.0176      3.6465      2.8965      2.5871      2.5872    
  2.8980      3.6502      5.0184      9.3320      19.292      34.133      49.440      59.222      59.216      49.435    
  14.588      7.9941      4.8379      3.6465      2.9124      2.5462      2.4408      2.5428      2.9112      3.6495    
  4.8400      7.9900      14.578      23.399      31.094      34.155      31.100      23.409      6.1322      4.4257    
  3.5244      2.8965      2.5462      2.3989      2.3975      2.5438      2.8959      3.5258      4.4271      6.1308    
  9.3714      13.273      15.959      15.963      13.281      9.3776      3.9532      3.3297      2.8707      2.5871    
  2.4408      2.3975      2.4438      2.5888      2.8687      3.3260      3.9509      4.6945      5.7637      6.8765    
  7.3583      6.8753      5.7624      4.6945      3.1155      2.8597      2.6880      2.5872      2.5428      2.5438    
  2.5888      2.6880      2.8574      3.1131      3.4515      3.8244      4.1443      4.3384      4.3379      4.1428    
  3.8230      3.4520      2.8750      2.8565      2.8702      2.8980      2.9112      2.8959      2.8687      2.8574    
  2.8771      2.9319      3.0243      3.1433      3.2496      3.2927      3.2499      3.1447      3.0257      2.9313    
  3.1129      3.3266      3.5272      3.6502      3.6495      3.5258      3.3260      3.1131      2.9319      2.7992    
  2.7180      2.6832      2.6762      2.6757      2.6826      2.7182      2.7999      2.9320      3.9534      4.4283    
  4.8401      5.0184      4.8400      4.4271      3.9509      3.4515      3.0243      2.7180      2.5262      2.4242    
  2.3925      2.4236      2.5248      2.7169      3.0250      3.4540      6.1323      7.9923      9.3331      9.3320    
  7.9900      6.1308      4.6945      3.8244      3.1433      2.6832      2.4242      2.3112      2.3113      2.4244    
  2.6834      3.1428      3.8234      4.6943      14.577      19.293      21.194      19.292      14.578      9.3714    
  5.7637      4.1443      3.2496      2.6762      2.3925      2.3113      2.3929      2.6765      3.2499      4.1441    
  5.7621      9.3695      34.127      41.062      41.066      34.133      23.399      13.273      6.8765      4.3384    
  3.2927      2.6757      2.4236      2.4244      2.6765      3.2912      4.3365      6.8782      13.277      23.398    
  64.658      70.584      64.660      49.440      31.094      15.959      7.3583      4.3379      3.2499      2.6826    
  2.5248      2.6834      3.2499      4.3365      7.3580      15.962      31.098      49.442      99.748      99.737    
  84.097      59.222      34.155      15.963      6.8753      4.1428      3.1447      2.7182      2.7169      3.1428    
  4.1441      6.8782      15.962      34.153      59.232      84.118      128.27      118.04      91.646      59.216    
  31.100      13.281      5.7624      3.8230      3.0257      2.7999      3.0250      3.8234      5.7621      13.277    
  31.098      59.232      91.681      118.07      139.29      118.02      84.079      49.435      23.409      9.3776    
  4.6945      3.4520      2.9313      2.9320      3.4540      4.6943      9.3695      23.398      49.442      84.118    
  118.07      139.32      84.075      59.157      34.104      15.968      6.9193      4.1925      3.1896      2.7631    
  2.7640      3.1886      4.1882      6.9212      15.983      34.122      59.161      84.066      99.751      99.757    
  59.157      37.425      19.272      8.6159      4.6821      3.4540      2.8245      2.6529      2.8292      3.4512    
  4.6728      8.6175      19.292      37.449      59.170      77.134      84.130      77.132      34.104      19.272    
  9.3317      5.0258      3.6532      2.8967      2.5869      2.5887      2.8984      3.6493      5.0191      9.3338    
  19.290      34.131      49.451      59.252      59.244      49.430      15.968      8.6159      5.0258      3.7253    
  2.9443      2.5582      2.4520      2.5580      2.9440      3.7234      5.0219      8.6159      15.980      25.723    
  34.174      37.519      34.154      25.699      6.9193      4.6821      3.6532      2.9443      2.5499      2.3912    
  2.3910      2.5494      2.9432      3.6502      4.6785      6.9204      11.083      15.967      19.283      19.277    
  15.953      11.073      4.1925      3.4540      2.8967      2.5582      2.3912      2.3417      2.3905      2.5578    
  2.8959      3.4520      4.1912      5.2278      6.8761      8.5445      9.2530      8.5418      6.8724      5.2261    
  3.1896      2.8245      2.5869      2.4520      2.3910      2.3905      2.4520      2.5888      2.8265      3.1887    
  3.6570      4.1443      4.5910      4.9109      4.9096      4.5895      4.1460      3.6603      2.7631      2.6529    
  2.5887      2.5580      2.5494      2.5578      2.5888      2.6536      2.7640      2.9293      3.1434      3.3684    
  3.5415      3.6065      3.5417      3.3687      3.1435      2.9288      2.7640      2.8292      2.8984      2.9440    
  2.9432      2.8959      2.8265      2.7640      2.7255      2.7180      2.7425      2.7874      2.8245      2.8261    
  2.7897      2.7414      2.7134      2.7216      3.1886      3.4512      3.6493      3.7234      3.6502      3.4520    
  3.1887      2.9293      2.7180      2.5680      2.4765      2.4328      2.4209      2.4324      2.4760      2.5675    
  2.7176      2.9292      4.1882      4.6728      5.0191      5.0219      4.6785      4.1912      3.6570      3.1434    
  2.7425      2.4765      2.3233      2.2547      2.2540      2.3216      2.4754      2.7442      3.1474      3.6590    
  6.9212      8.6175      9.3338      8.6159      6.9204      5.2278      4.1443      3.3684      2.7874      2.4328    
  2.2547      2.2011      2.2544      2.4333      2.7884      3.3678      4.1418      5.2260      15.983      19.292    
  19.290      15.980      11.083      6.8761      4.5910      3.5415      2.8245      2.4209      2.2540      2.2544    
  2.4219      2.8256      3.5410      4.5877      6.8719      11.082      34.122      37.449      34.131      25.723    
  15.967      8.5445      4.9109      3.6065      2.8261      2.4324      2.3216      2.4333      2.8256      3.6047    
  4.9113      8.5471      15.965      25.714      59.161      59.170      49.451      34.174      19.283      9.2530    
  4.9096      3.5417      2.7897      2.4760      2.4754      2.7884      3.5410      4.9113      9.2564      19.282    
  34.161      49.432      84.066      77.134      59.252      37.519      19.277      8.5418      4.5895      3.3687    
  2.7414      2.5675      2.7442      3.3678      4.5877      8.5471      19.282      37.507      59.222      77.109    
  99.751      84.130      59.244      34.154      15.953      6.8724      4.1460      3.1435      2.7134      2.7176    
  3.1474      4.1418      6.8719      15.965      34.161      59.222      84.089      99.730      99.757      77.132    
  49.430      25.699      11.073      5.2261      3.6603      2.9288      2.7216      2.9292      3.6590      5.2260    
  11.082      25.714      49.432      77.109      99.730      108.51      45.162      28.341      14.591      6.9147    
  4.2716      3.2430      2.7102      2.5598      2.7086      3.2471      4.2819      6.9198      14.579      28.311    
  45.127      59.150      64.630      59.174      28.341      16.022      7.9820      4.6627      3.4972      2.8220    
  2.5413      2.5413      2.8226      3.5020      4.6738      7.9894      16.010      28.307      41.159      49.425    
  49.441      41.196      14.591      7.9820      4.8225      3.6384      2.9116      2.5466      2.4397      2.5423    
  2.9115      3.6488      4.8387      7.9902      14.577      23.394      31.091      34.163      31.121      23.428    
  6.9147      4.6627      3.6384      2.9413      2.5518      2.3907      2.3887      2.5491      2.9439      3.6486    
  4.6765      6.9211      11.082      15.959      19.279      19.291      15.983      11.094      4.2716      3.4972    
  2.9116      2.5518      2.3729      2.3217      2.3744      2.5498      2.9083      3.5016      4.2843      5.4644    
  7.3565      9.2550      10.063      9.2652      7.3620      5.4563      3.2430      2.8220      2.5466      2.3907    
  2.3217      2.3226      2.3911      2.5441      2.8200      3.2469      3.7872      4.3379      4.9117      5.3438    
  5.3463      4.9143      4.3338      3.7792      2.7102      2.5413      2.4397      2.3887      2.3744      2.3911    
  2.4432      2.5435      2.7096      2.9521      3.2503      3.5418      3.7503      3.8243      3.7487      3.5407    
  3.2513      2.9542      2.5598      2.5413      2.5423      2.5491      2.5498      2.5441      2.5435      2.5610    
  2.6058      2.6834      2.7878      2.8924      2.9584      2.9578      2.8918      2.7888      2.6853      2.6066    
  2.7086      2.8226      2.9115      2.9439      2.9083      2.8200      2.7096      2.6058      2.5258      2.4768    
  2.4575      2.4575      2.4607      2.4588      2.4591      2.4768      2.5234      2.6024      3.2471      3.5020    
  3.6488      3.6486      3.5016      3.2469      2.9521      2.6834      2.4768      2.3367      2.2537      2.2165    
  2.2167      2.2544      2.3373      2.4766      2.6826      2.9515      4.2819      4.6738      4.8387      4.6765    
  4.2843      3.7872      3.2503      2.7878      2.4575      2.2537      2.1467      2.1138      2.1468      2.2534    
  2.4574      2.7894      3.2528      3.7877      6.9198      7.9894      7.9902      6.9211      5.4644      4.3379    
  3.5418      2.8924      2.4575      2.2165      2.1138      2.1140      2.2168      2.4575      2.8922      3.5422    
  4.3384      5.4640      14.579      16.010      14.577      11.082      7.3565      4.9117      3.7503      2.9584    
  2.4607      2.2167      2.1468      2.2168      2.4610      2.9585      3.7499      4.9112      7.3568      11.084    
  28.311      28.307      23.394      15.959      9.2550      5.3438      3.8243      2.9578      2.4588      2.2544    
  2.2534      2.4575      2.9585      3.8258      5.3432      9.2540      15.964      23.403      45.127      41.159    
  31.091      19.279      10.063      5.3463      3.7487      2.8918      2.4591      2.3373      2.4574      2.8922    
  3.7499      5.3432      10.058      19.282      31.105      41.173      59.150      49.425      34.163      19.291    
  9.2652      4.9143      3.5407      2.7888      2.4768      2.4766      2.7894      3.5422      4.9112      9.2540    
  19.282      34.170      49.446      59.162      64.630      49.441      31.121      15.983      7.3620      4.3338    
  3.2513      2.6853      2.5234      2.6826      3.2528      4.3384      7.3568      15.964      31.105      49.446    
  64.645      70.551      59.174      41.196      23.428      11.094      5.4563      3.7792      2.9542      2.6066    
  2.6024      2.9515      3.7877      5.4640      11.084      23.403      41.173      59.162      70.551      70.554    
  19.368      11.148      6.1504      4.2083      3.2513      2.6935      2.4689      2.4700      2.6950      3.2470    
  4.1924      6.1319      11.149      19.397      28.320      34.132      34.114      28.281      11.148      6.5438    
  4.4491      3.4599      2.8197      2.5079      2.4216      2.5094      2.8200      3.4521      4.4293      6.5227    
  11.148      17.630      23.404      25.705      23.374      17.602      6.1504      4.4491      3.5336      2.8922    
  2.5410      2.3985      2.3984      2.5431      2.8954      3.5268      4.4276      6.1298      9.3722      13.276    
  15.957      15.947      13.259      9.3724      4.2083      3.4599      2.8922      2.5518      2.3889      2.3413    
  2.3892      2.5568      2.8962      3.4514      4.1895      5.2275      6.8765      8.5412      9.2453      8.5366    
  6.8775      5.2414      3.2513      2.8197      2.5410      2.3889      2.3232      2.3226      2.3889      2.5434    
  2.8210      3.2460      3.7847      4.3379      4.9123      5.3387      5.3375      4.9129      4.3452      3.7951    
  2.6935      2.5079      2.3985      2.3413      2.3226      2.3401      2.3981      2.5090      2.6940      2.9648    
  3.2934      3.6066      3.8245      3.9008      3.8246      3.6087      3.2972      2.9672      2.4689      2.4216    
  2.3984      2.3892      2.3889      2.3981      2.4217      2.4688      2.5518      2.6763      2.8249      2.9585    
  3.0369      3.0373      2.9593      2.8258      2.6773      2.5526      2.4700      2.5094      2.5431      2.5568    
  2.5434      2.5090      2.4688      2.4373      2.4241      2.4327      2.4578      2.4845      2.4956      2.4839    
  2.4572      2.4327      2.4248      2.4386      2.6950      2.8200      2.8954      2.8962      2.8210      2.6940    
  2.5518      2.4241      2.3239      2.2539      2.2129      2.1959      2.1960      2.2124      2.2522      2.3228    
  2.4254      2.5545      3.2470      3.4521      3.5268      3.4514      3.2460      2.9648      2.6763      2.4327    
  2.2539      2.1367      2.0714      2.0503      2.0711      2.1366      2.2542      2.4331      2.6769      2.9657    
  4.1924      4.4293      4.4276      4.1895      3.7847      3.2934      2.8249      2.4578      2.2129      2.0714    
  2.0074      2.0068      2.0709      2.2139      2.4593      2.8251      3.2928      3.7858      6.1319      6.5227    
  6.1298      5.2275      4.3379      3.6066      2.9585      2.4845      2.1959      2.0503      2.0068      2.0506    
  2.1958      2.4836      2.9574      3.6063      4.3392      5.2300      11.149      11.148      9.3722      6.8765    
  4.9123      3.8245      3.0369      2.4956      2.1960      2.0711      2.0709      2.1958      2.4954      3.0360    
  3.8233      4.9123      6.8781      9.3740      19.397      17.630      13.276      8.5412      5.3387      3.9008    
  3.0373      2.4839      2.2124      2.1366      2.2139      2.4836      3.0360      3.9026      5.3435      8.5436    
  13.274      17.626      28.320      23.404      15.957      9.2453      5.3375      3.8246      2.9593      2.4572    
  2.2522      2.2542      2.4593      2.9574      3.8233      5.3435      9.2555      15.962      23.400      28.317    
  34.132      25.705      15.947      8.5366      4.9129      3.6087      2.8258      2.4327      2.3228      2.4331    
  2.8251      3.6063      4.9123      8.5436      15.962      25.720      34.140      37.467      34.114      23.374    
  13.259      6.8775      4.3452      3.2972      2.6773      2.4248      2.4254      2.6769      3.2928      4.3392    
  6.8781      13.274      23.400      34.140      41.076      41.065      28.281      17.602      9.3724      5.2414    
  3.7951      2.9672      2.5526      2.4386      2.5545      2.9657      3.7858      5.2300      9.3740      17.626    
  28.317      37.467      41.065      37.442      7.4652      5.0503      3.9327      3.1899      2.7179      2.4723    
  2.3965      2.4689      2.7112      3.1885      3.9498      5.0826      7.4859      11.147      14.581      15.998    
  14.602      11.157      5.0503      4.0385      3.3283      2.8368      2.5503      2.4222      2.4215      2.5449    
  2.8264      3.3262      4.0583      5.0826      6.9664      9.3745      11.095      11.100      9.3772      6.9473    
  3.9327      3.3283      2.8825      2.5974      2.4438      2.3977      2.4451      2.5900      2.8687      3.3268    
  3.9528      4.6951      5.7638      6.8813      7.3685      6.8801      5.7497      4.6683      3.1899      2.8368    
  2.5974      2.4540      2.3890      2.3903      2.4534      2.5890      2.8260      3.1896      3.6586      4.1442    
  4.5914      4.9157      4.9142      4.5832      4.1278      3.6447      2.7179      2.5503      2.4438      2.3890    
  2.3745      2.3915      2.4429      2.5432      2.7100      2.9523      3.2497      3.5415      3.7513      3.8248    
  3.7450      3.5320      3.2430      2.9535      2.4723      2.4222      2.3977      2.3903      2.3915      2.3991    
  2.4207      2.4685      2.5529      2.6763      2.8236      2.9584      3.0378      3.0358      2.9544      2.8213    
  2.6771      2.5562      2.3965      2.4215      2.4451      2.4534      2.4429      2.4207      2.3981      2.3858    
  2.3922      2.4200      2.4603      2.4954      2.5087      2.4949      2.4612      2.4224      2.3937      2.3846    
  2.4689      2.5449      2.5900      2.5890      2.5432      2.4685      2.3858      2.3113      2.2541      2.2163    
  2.1955      2.1868      2.1868      2.1959      2.2171      2.2541      2.3102      2.3846      2.7112      2.8264    
  2.8687      2.8260      2.7100      2.5529      2.3922      2.2541      2.1472      2.0715      2.0264      2.0120    
  2.0272      2.0712      2.1451      2.2519      2.3919      2.5541      3.1885      3.3262      3.3268      3.1896    
  2.9523      2.6763      2.4200      2.2163      2.0715      1.9796      1.9352      1.9353      1.9797      2.0710    
  2.2159      2.4202      2.6766      2.9518      3.9498      4.0583      3.9528      3.6586      3.2497      2.8236    
  2.4603      2.1955      2.0264      1.9352      1.9067      1.9351      2.0262      2.1958      2.4616      2.8251    
  3.2493      3.6557      5.0826      5.0826      4.6951      4.1442      3.5415      2.9584      2.4954      2.1868    
  2.0120      1.9353      1.9351      2.0116      2.1868      2.4957      2.9581      3.5404      4.1430      4.6947    
  7.4859      6.9664      5.7638      4.5914      3.7513      3.0378      2.5087      2.1868      2.0272      1.9797    
  2.0262      2.1868      2.5095      3.0369      3.7487      4.5893      5.7635      6.9669      11.147      9.3745    
  6.8813      4.9157      3.8248      3.0358      2.4949      2.1959      2.0712      2.0710      2.1958      2.4957    
  3.0369      3.8239      4.9116      6.8761      9.3710      11.146      14.581      11.095      7.3685      4.9142    
  3.7450      2.9544      2.4612      2.2171      2.1451      2.2159      2.4616      2.9581      3.7487      4.9116    
  7.3581      11.082      14.572      16.005      15.998      11.100      6.8801      4.5832      3.5320      2.8213    
  2.4224      2.2541      2.2519      2.4202      2.8251      3.5404      4.5893      6.8761      11.082      15.973    
  19.283      19.295      14.602      9.3772      5.7497      4.1278      3.2430      2.6771      2.3937      2.3102    
  2.3919      2.6766      3.2493      4.1430      5.7635      9.3710      14.572      19.283      21.196      19.313    
  11.157      6.9473      4.6683      3.6447      2.9535      2.5562      2.3846      2.3846      2.5541      2.9518    
  3.6557      4.6947      6.9669      11.146      16.005      19.295      19.313      16.037      4.3068      3.6437    
  3.1007      2.7460      2.5531      2.4685      2.4682      2.5592      2.7636      3.1129      3.6299      4.2729    
  5.0815      6.1285      6.9111      6.9099      6.1353      5.1084      3.6437      3.1704      2.8360      2.6405    
  2.5434      2.5113      2.5420      2.6523      2.8588      3.1810      3.6290      4.1538      4.6954      5.2233    
  5.4570      5.2315      4.7159      4.1810      3.1007      2.8360      2.6740      2.5870      2.5476      2.5452    
  2.5875      2.6881      2.8588      3.1124      3.4502      3.8253      4.1440      4.3342      4.3391      4.1597    
  3.8467      3.4605      2.7460      2.6405      2.5870      2.5615      2.5514      2.5578      2.5890      2.6543    
  2.7641      2.9292      3.1443      3.3693      3.5408      3.6068      3.5487      3.3817      3.1510      2.9213    
  2.5531      2.5434      2.5476      2.5514      2.5489      2.5439      2.5448      2.5615      2.6052      2.6838    
  2.7892      2.8926      2.9582      2.9611      2.8980      2.7904      2.6776      2.5945      2.4685      2.5113    
  2.5452      2.5578      2.5439      2.5097      2.4694      2.4375      2.4242      2.4331      2.4582      2.4843    
  2.4959      2.4857      2.4588      2.4304      2.4186      2.4329      2.4682      2.5420      2.5875      2.5890    
  2.5448      2.4694      2.3854      2.3112      2.2547      2.2166      2.1952      2.1867      2.1870      2.1954    
  2.2160      2.2540      2.3115      2.3859      2.5592      2.6523      2.6881      2.6543      2.5615      2.4375    
  2.3112      2.2012      2.1139      2.0504      2.0114      1.9984      2.0116      2.0506      2.1143      2.2019    
  2.3117      2.4366      2.7636      2.8588      2.8588      2.7641      2.6052      2.4242      2.2547      2.1139    
  2.0071      1.9352      1.8988      1.8985      1.9352      2.0080      2.1148      2.2539      2.4220      2.6034    
  3.1129      3.1810      3.1124      2.9292      2.6838      2.4331      2.2166      2.0504      1.9352      1.8678    
  1.8456      1.8679      1.9355      2.0508      2.2165      2.4320      2.6824      2.9289      3.6299      3.6290    