unknown system                          
   3.62000000000000     
     0.500000    0.500000    0.000000
     0.000000    0.500000    0.500000
     0.500000    0.000000    0.500000
   1
Direct
  0.000000  0.000000  0.000000
 
   18   18   18
 0.17802731626E+03 0.16412794917E+03 0.12825168895E+03 0.84041582869E+02 0.45125509025E+02
 0.19393831969E+02 0.74826968436E+01 0.42719178846E+01 0.33172287633E+01 0.30431632859E+01
 0.33172287633E+01 0.42719178846E+01 0.74826968436E+01 0.19393831969E+02 0.45125509025E+02
 0.84041582869E+02 0.12825168895E+03 0.16412794917E+03 0.16412794917E+03 0.13931439850E+03
 0.99708937700E+02 0.59152147565E+02 0.28307429461E+02 0.11150962527E+02 0.50802536307E+01
 0.36304898016E+01 0.30585778941E+01 0.30599548525E+01 0.36330233143E+01 0.50798110559E+01
 0.11146817852E+02 0.28307455639E+02 0.59162761122E+02 0.99723321426E+02 0.13932218542E+03
 0.16412939419E+03 0.12825168895E+03 0.99708937700E+02 0.64635458645E+02 0.34125086859E+02
 0.14580308315E+02 0.61311473729E+01 0.39514836946E+01 0.31137567331E+01 0.28749550152E+01
 0.31121063407E+01 0.39510361021E+01 0.61314167710E+01 0.14577236861E+02 0.34122242753E+02
 0.64647906799E+02 0.99742554502E+02 0.12828387561E+03 0.13932218542E+03 0.84041582869E+02
 0.59152147565E+02 0.34125086859E+02 0.15986837028E+02 0.69227031763E+01 0.41894729575E+01
 0.31902086764E+01 0.27649849186E+01 0.27632505633E+01 0.31881284204E+01 0.41903158732E+01
 0.69223107589E+01 0.15981256072E+02 0.34125012595E+02 0.59174276064E+02 0.84079018987E+02
 0.99742554502E+02 0.99723321426E+02 0.45125509025E+02 0.28307429461E+02 0.14580308315E+02
 0.69227031763E+01 0.42812104110E+01 0.32464322054E+01 0.27106671470E+01 0.25611473649E+01
 0.27099905422E+01 0.32473162267E+01 0.42827373461E+01 0.69217487398E+01 0.14578743241E+02
 0.28312042853E+02 0.45137973956E+02 0.59174276064E+02 0.64647906799E+02 0.59162761122E+02
 0.19393831969E+02 0.11150962527E+02 0.61311473729E+01 0.41894729575E+01 0.32464322054E+01
 0.26958040275E+01 0.24688373876E+01 0.24684057264E+01 0.26954355368E+01 0.32474816685E+01
 0.41911340381E+01 0.61310496478E+01 0.11149568140E+02 0.19395027467E+02 0.28312042853E+02
 0.34125012595E+02 0.34122242753E+02 0.28307455639E+02 0.74826968436E+01 0.50802536307E+01
 0.39514836946E+01 0.31902086764E+01 0.27106671470E+01 0.24688373876E+01 0.23969564226E+01
 0.24685299158E+01 0.27097135311E+01 0.31887077964E+01 0.39505729561E+01 0.50812329450E+01
 0.74853780448E+01 0.11149568140E+02 0.14578743241E+02 0.15981256072E+02 0.14577236861E+02
 0.11146817852E+02 0.42719178846E+01 0.36304898016E+01 0.31137567331E+01 0.27649849186E+01
 0.25611473649E+01 0.24684057264E+01 0.24685299158E+01 0.25610247651E+01 0.27640836936E+01
 0.31129265188E+01 0.36312661381E+01 0.42740969929E+01 0.50812329450E+01 0.61310496478E+01
 0.69217487398E+01 0.69223107589E+01 0.61314167710E+01 0.50798110559E+01 0.33172287633E+01
 0.30585778941E+01 0.28749550152E+01 0.27632505633E+01 0.27099905422E+01 0.26954355368E+01
 0.27097135311E+01 0.27640836936E+01 0.28773119488E+01 0.30605087945E+01 0.33167682113E+01
 0.36312661381E+01 0.39505729561E+01 0.41911340381E+01 0.42827373461E+01 0.41903158732E+01
 0.39510361021E+01 0.36330233143E+01 0.30431632859E+01 0.30599548525E+01 0.31121063407E+01
 0.31881284204E+01 0.32473162267E+01 0.32474816685E+01 0.31887077964E+01 0.31129265188E+01
 0.30605087945E+01 0.30434586824E+01 0.30605087945E+01 0.31129265188E+01 0.31887077964E+01
 0.32474816685E+01 0.32473162267E+01 0.31881284204E+01 0.31121063407E+01 0.30599548525E+01
 0.33172287633E+01 0.36330233143E+01 0.39510361021E+01 0.41903158732E+01 0.42827373461E+01
 0.41911340381E+01 0.39505729561E+01 0.36312661381E+01 0.33167682113E+01 0.30605087945E+01
 0.28773119488E+01 0.27640836936E+01 0.27097135311E+01 0.26954355368E+01 0.27099905422E+01
 0.27632505633E+01 0.28749550152E+01 0.30585778941E+01 0.42719178846E+01 0.50798110559E+01
 0.61314167710E+01 0.69223107589E+01 0.69217487398E+01 0.61310496478E+01 0.50812329450E+01
 0.42740969929E+01 0.36312661381E+01 0.31129265188E+01 0.27640836936E+01 0.25610247651E+01
 0.24685299158E+01 0.24684057264E+01 0.25611473649E+01 0.27649849186E+01 0.31137567331E+01
 0.36304898016E+01 0.74826968436E+01 0.11146817852E+02 0.14577236861E+02 0.15981256072E+02
 0.14578743241E+02 0.11149568140E+02 0.74853780448E+01 0.50812329450E+01 0.39505729561E+01
 0.31887077964E+01 0.27097135311E+01 0.24685299158E+01 0.23969564226E+01 0.24688373876E+01
 0.27106671470E+01 0.31902086764E+01 0.39514836946E+01 0.50802536307E+01 0.19393831969E+02
 0.28307455639E+02 0.34122242753E+02 0.34125012595E+02 0.28312042853E+02 0.19395027467E+02
 0.11149568140E+02 0.61310496478E+01 0.41911340381E+01 0.32474816685E+01 0.26954355368E+01
 0.24684057264E+01 0.24688373876E+01 0.26958040275E+01 0.32464322054E+01 0.41894729575E+01
 0.61311473729E+01 0.11150962527E+02 0.45125509025E+02 0.59162761122E+02 0.64647906799E+02
 0.59174276064E+02 0.45137973956E+02 0.28312042853E+02 0.14578743241E+02 0.69217487398E+01
 0.42827373461E+01 0.32473162267E+01 0.27099905422E+01 0.25611473649E+01 0.27106671470E+01
 0.32464322054E+01 0.42812104110E+01 0.69227031763E+01 0.14580308315E+02 0.28307429461E+02
 0.84041582869E+02 0.99723321426E+02 0.99742554502E+02 0.84079018987E+02 0.59174276064E+02
 0.34125012595E+02 0.15981256072E+02 0.69223107589E+01 0.41903158732E+01 0.31881284204E+01
 0.27632505633E+01 0.27649849186E+01 0.31902086764E+01 0.41894729575E+01 0.69227031763E+01
 0.15986837028E+02 0.34125086859E+02 0.59152147565E+02 0.12825168895E+03 0.13932218542E+03
 0.12828387561E+03 0.99742554502E+02 0.64647906799E+02 0.34122242753E+02 0.14577236861E+02
 0.61314167710E+01 0.39510361021E+01 0.31121063407E+01 0.28749550152E+01 0.31137567331E+01
 0.39514836946E+01 0.61311473729E+01 0.14580308315E+02 0.34125086859E+02 0.64635458645E+02
 0.99708937700E+02 0.16412794917E+03 0.16412939419E+03 0.13932218542E+03 0.99723321426E+02
 0.59162761122E+02 0.28307455639E+02 0.11146817852E+02 0.50798110559E+01 0.36330233143E+01
 0.30599548525E+01 0.30585778941E+01 0.36304898016E+01 0.50802536307E+01 0.11150962527E+02
 0.28307429461E+02 0.59152147565E+02 0.99708937700E+02 0.13931439850E+03 0.16410060780E+03
 0.13933690934E+03 0.99755076286E+02 0.59179941758E+02 0.28307087174E+02 0.11145171202E+02
 0.50829925191E+01 0.36329982944E+01 0.30558041536E+01 0.30603260090E+01 0.36376746096E+01
 0.50798440374E+01 0.11145100007E+02 0.28317148550E+02 0.59178945562E+02 0.99718509829E+02
 0.13928019759E+03 0.16407263668E+03 0.13933690934E+03 0.10852604634E+03 0.70590049312E+02
 0.37449551554E+02 0.15999829050E+02 0.65200877335E+01 0.40612877274E+01 0.31821162411E+01
 0.29290487709E+01 0.31821832292E+01 0.40601240990E+01 0.65220699766E+01 0.16010816726E+02
 0.37458683810E+02 0.70569495387E+02 0.10846817755E+03 0.13928212658E+03 0.15124277505E+03
 0.99755076286E+02 0.70590049312E+02 0.41055921626E+02 0.19281936747E+02 0.79850399191E+01
 0.44265090000E+01 0.33275094451E+01 0.28565775949E+01 0.28570653114E+01 0.33263755861E+01
 0.44244140712E+01 0.79904140018E+01 0.19294154167E+02 0.41055714153E+02 0.70561969011E+02
 0.99713657340E+02 0.11804571693E+03 0.11806563303E+03 0.59179941758E+02 0.37449551554E+02
 0.19281936747E+02 0.86125826319E+01 0.46765269503E+01 0.34516502818E+01 0.28237138556E+01
 0.26519836872E+01 0.28286405886E+01 0.34509654016E+01 0.46719571891E+01 0.86164365331E+01
 0.19292157142E+02 0.37448916975E+02 0.59162502162E+02 0.77117836239E+02 0.84116545859E+02
 0.77136030715E+02 0.28307087174E+02 0.15999829050E+02 0.79850399191E+01 0.46765269503E+01
 0.35039541020E+01 0.28214200426E+01 0.25412915368E+01 0.25429149110E+01 0.28227591811E+01
 0.35013325087E+01 0.46747739232E+01 0.79909832029E+01 0.16008748870E+02 0.28306283937E+02
 0.41168560763E+02 0.49445551612E+02 0.49452782728E+02 0.41180155982E+02 0.11145171202E+02
 0.65200877335E+01 0.44265090000E+01 0.34516502818E+01 0.28214200426E+01 0.25095158670E+01
 0.24207484240E+01 0.25090865022E+01 0.28205818446E+01 0.34513317416E+01 0.44281119770E+01
 0.65233596914E+01 0.11147591057E+02 0.17624844838E+02 0.23402177196E+02 0.25719830805E+02
 0.23403753312E+02 0.17625160807E+02 0.50829925191E+01 0.40612877274E+01 0.33275094451E+01
 0.28237138556E+01 0.25412915368E+01 0.24207484240E+01 0.24217478598E+01 0.25435114802E+01
 0.28251766032E+01 0.33263494138E+01 0.40579407201E+01 0.50810833215E+01 0.69662116453E+01
 0.93743778540E+01 0.11086523653E+02 0.11083183859E+02 0.93680196590E+01 0.69631577059E+01
 0.36329982944E+01 0.31821162411E+01 0.28565775949E+01 0.26519836872E+01 0.25429149110E+01
 0.25090865022E+01 0.25435114802E+01 0.26533251233E+01 0.28576451673E+01 0.31815966784E+01
 0.36314054414E+01 0.41537307828E+01 0.46947678772E+01 0.52283998821E+01 0.54644649927E+01
 0.52276457058E+01 0.46943421243E+01 0.41546256002E+01 0.30558041536E+01 0.29290487709E+01
 0.28570653114E+01 0.28286405886E+01 0.28227591811E+01 0.28205818446E+01 0.28251766032E+01
 0.28576451673E+01 0.29342163028E+01 0.30601356945E+01 0.32369380849E+01 0.34513252261E+01
 0.36564896046E+01 0.37843689303E+01 0.37858912061E+01 0.36609139818E+01 0.34564004917E+01
 0.32380807352E+01 0.30603260090E+01 0.31821832292E+01 0.33263755861E+01 0.34509654016E+01
 0.35013325087E+01 0.34513317416E+01 0.33263494138E+01 0.31815966784E+01 0.30601356945E+01
 0.29763513564E+01 0.29324238526E+01 0.29290006910E+01 0.29511735756E+01 0.29656972297E+01
 0.29526663654E+01 0.29299332575E+01 0.29318655152E+01 0.29755889354E+01 0.36376746096E+01
 0.40601240990E+01 0.44244140712E+01 0.46719571891E+01 0.46747739232E+01 0.44281119770E+01
 0.40579407201E+01 0.36314054414E+01 0.32369380849E+01 0.29324238526E+01 0.27261814947E+01
 0.26054797544E+01 0.25532699655E+01 0.25539099404E+01 0.26050787944E+01 0.27226088684E+01
 0.29294803067E+01 0.32397308480E+01 0.50798440374E+01 0.65220699766E+01 0.79904140018E+01
 0.86164365331E+01 0.79909832029E+01 0.65233596914E+01 0.50810833215E+01 0.41537307828E+01
 0.34513252261E+01 0.29290006910E+01 0.26054797544E+01 0.24375320132E+01 0.23855112708E+01
 0.24368378964E+01 0.26056686029E+01 0.29307315789E+01 0.34531471365E+01 0.41539492141E+01
 0.11145100007E+02 0.16010816726E+02 0.19294154167E+02 0.19292157142E+02 0.16008748870E+02
 0.11147591057E+02 0.69662116453E+01 0.46947678772E+01 0.36564896046E+01 0.29511735756E+01
 0.25532699655E+01 0.23855112708E+01 0.23841712002E+01 0.25520130919E+01 0.29538308581E+01
 0.36611494532E+01 0.46955899421E+01 0.69623860653E+01 0.28317148550E+02 0.37458683810E+02
 0.41055714153E+02 0.37448916975E+02 0.28306283937E+02 0.17624844838E+02 0.93743778540E+01
 0.52283998821E+01 0.37843689303E+01 0.29656972297E+01 0.25539099404E+01 0.24368378964E+01
 0.25520130919E+01 0.29656739038E+01 0.37856497799E+01 0.52271008671E+01 0.93723030946E+01
 0.17628718520E+02 0.59178945562E+02 0.70569495387E+02 0.70561969011E+02 0.59162502162E+02
 0.41168560763E+02 0.23402177196E+02 0.11086523653E+02 0.54644649927E+01 0.37858912061E+01
 0.29526663654E+01 0.26050787944E+01 0.26056686029E+01 0.29538308581E+01 0.37856497799E+01
 0.54612359401E+01 0.11083103541E+02 0.23405404950E+02 0.41181712710E+02 0.99718509829E+02
 0.10846817755E+03 0.99713657340E+02 0.77117836239E+02 0.49445551612E+02 0.25719830805E+02
 0.11083183859E+02 0.52276457058E+01 0.36609139818E+01 0.29299332575E+01 0.27226088684E+01
 0.29307315789E+01 0.36611494532E+01 0.52271008671E+01 0.11083103541E+02 0.25721391220E+02
 0.49449498338E+02 0.77123766610E+02 0.13928019759E+03 0.13928212658E+03 0.11804571693E+03
 0.84116545859E+02 0.49452782728E+02 0.23403753312E+02 0.93680196590E+01 0.46943421243E+01
 0.34564004917E+01 0.29318655152E+01 0.29294803067E+01 0.34531471365E+01 0.46955899421E+01
 0.93723030946E+01 0.23405404950E+02 0.49449498338E+02 0.84110682070E+02 0.11804069271E+03
 0.16407263668E+03 0.15124277505E+03 0.11806563303E+03 0.77136030715E+02 0.41180155982E+02
 0.17625160807E+02 0.69631577059E+01 0.41546256002E+01 0.32380807352E+01 0.29755889354E+01
 0.32397308480E+01 0.41539492141E+01 0.69623860653E+01 0.17628718520E+02 0.41181712710E+02
 0.77123766610E+02 0.11804069271E+03 0.15122216221E+03 0.12822316006E+03 0.99699729579E+02
 0.64647349117E+02 0.34141259574E+02 0.14587505788E+02 0.61322337225E+01 0.39532438976E+01
 0.31155399783E+01 0.28749529606E+01 0.31129061971E+01 0.39534197147E+01 0.61323351853E+01
 0.14577455466E+02 0.34127353957E+02 0.64658379420E+02 0.99748381271E+02 0.12827285745E+03
 0.13929406887E+03 0.99699729579E+02 0.70568089293E+02 0.41073954234E+02 0.19307729004E+02
 0.79940838927E+01 0.44256718404E+01 0.33297415204E+01 0.28596931294E+01 0.28564634971E+01
 0.33266178517E+01 0.44282827089E+01 0.79923260616E+01 0.19292780335E+02 0.41061800175E+02
 0.70583623009E+02 0.99736820866E+02 0.11804027237E+03 0.11802018293E+03 0.64647349117E+02
 0.41073954234E+02 0.21210926877E+02 0.93414929552E+01 0.48378738040E+01 0.35243907356E+01
 0.28706793521E+01 0.26879873621E+01 0.28702300960E+01 0.35272329526E+01 0.48401487230E+01
 0.93331477940E+01 0.21193558604E+02 0.41065662908E+02 0.64659572270E+02 0.84096939780E+02
 0.91645600790E+02 0.84078984988E+02 0.34141259574E+02 0.19307729004E+02 0.93414929552E+01
 0.50176418366E+01 0.36465311551E+01 0.28964855837E+01 0.25871329150E+01 0.25872046859E+01
 0.28980002350E+01 0.36502343635E+01 0.50184299832E+01 0.93320447466E+01 0.19291610518E+02
 0.34133297913E+02 0.49440319918E+02 0.59221800058E+02 0.59216486525E+02 0.49434825587E+02
 0.14587505788E+02 0.79940838927E+01 0.48378738040E+01 0.36465311551E+01 0.29123758198E+01
 0.25461665052E+01 0.24407969932E+01 0.25428280730E+01 0.29111807853E+01 0.36494622567E+01
 0.48399570155E+01 0.79900027485E+01 0.14577670804E+02 0.23398516376E+02 0.31093503575E+02
 0.34154772133E+02 0.31100242235E+02 0.23409275994E+02 0.61322337225E+01 0.44256718404E+01
 0.35243907356E+01 0.28964855837E+01 0.25461665052E+01 0.23989144515E+01 0.23975128929E+01
 0.25437910370E+01 0.28959089310E+01 0.35258271698E+01 0.44270706151E+01 0.61307810331E+01
 0.93714381323E+01 0.13272577824E+02 0.15959060385E+02 0.15963146543E+02 0.13281002070E+02
 0.93775885074E+01 0.39532438976E+01 0.33297415204E+01 0.28706793521E+01 0.25871329150E+01
 0.24407969932E+01 0.23975128929E+01 0.24437607608E+01 0.25888471280E+01 0.28686616816E+01
 0.33259969160E+01 0.39509087557E+01 0.46945280551E+01 0.57636914174E+01 0.68764587714E+01
 0.73583040113E+01 0.68753257082E+01 0.57623984462E+01 0.46945325995E+01 0.31155399783E+01
 0.28596931294E+01 0.26879873621E+01 0.25872046859E+01 0.25428280730E+01 0.25437910370E+01
 0.25888471280E+01 0.26879666570E+01 0.28574040193E+01 0.31130534876E+01 0.34515024930E+01
 0.38243657277E+01 0.41442772668E+01 0.43384051751E+01 0.43378851025E+01 0.41428292440E+01
 0.38229924366E+01 0.34519547156E+01 0.28749529606E+01 0.28564634971E+01 0.28702300960E+01
 0.28980002350E+01 0.29111807853E+01 0.28959089310E+01 0.28686616816E+01 0.28574040193E+01
 0.28771067593E+01 0.29318664797E+01 0.30242726533E+01 0.31432948952E+01 0.32496153118E+01
 0.32927332235E+01 0.32499270484E+01 0.31446895670E+01 0.30257320573E+01 0.29313185058E+01
 0.31129061971E+01 0.33266178517E+01 0.35272329526E+01 0.36502343635E+01 0.36494622567E+01
 0.35258271698E+01 0.33259969160E+01 0.31130534876E+01 0.29318664797E+01 0.27992464603E+01
 0.27180253686E+01 0.26832331484E+01 0.26761592763E+01 0.26756832790E+01 0.26825883768E+01
 0.27182479471E+01 0.27999489166E+01 0.29320430329E+01 0.39534197147E+01 0.44282827089E+01
 0.48401487230E+01 0.50184299832E+01 0.48399570155E+01 0.44270706151E+01 0.39509087557E+01
 0.34515024930E+01 0.30242726533E+01 0.27180253686E+01 0.25262148203E+01 0.24242446099E+01
 0.23925401834E+01 0.24235739623E+01 0.25247778005E+01 0.27168788271E+01 0.30249804551E+01
 0.34539970533E+01 0.61323351853E+01 0.79923260616E+01 0.93331477940E+01 0.93320447466E+01
 0.79900027485E+01 0.61307810331E+01 0.46945280551E+01 0.38243657277E+01 0.31432948952E+01
 0.26832331484E+01 0.24242446099E+01 0.23112389486E+01 0.23112634929E+01 0.24244411328E+01
 0.26834212406E+01 0.31428244182E+01 0.38233623303E+01 0.46943451349E+01 0.14577455466E+02
 0.19292780335E+02 0.21193558604E+02 0.19291610518E+02 0.14577670804E+02 0.93714381323E+01
 0.57636914174E+01 0.41442772668E+01 0.32496153118E+01 0.26761592763E+01 0.23925401834E+01
 0.23112634929E+01 0.23928987052E+01 0.26765084248E+01 0.32499316588E+01 0.41440929049E+01
 0.57621312739E+01 0.93694506155E+01 0.34127353957E+02 0.41061800175E+02 0.41065662908E+02
 0.34133297913E+02 0.23398516376E+02 0.13272577824E+02 0.68764587714E+01 0.43384051751E+01
 0.32927332235E+01 0.26756832790E+01 0.24235739623E+01 0.24244411328E+01 0.26765084248E+01
 0.32912415249E+01 0.43365038823E+01 0.68782462397E+01 0.13276781432E+02 0.23398399675E+02
 0.64658379420E+02 0.70583623009E+02 0.64659572270E+02 0.49440319918E+02 0.31093503575E+02
 0.15959060385E+02 0.73583040113E+01 0.43378851025E+01 0.32499270484E+01 0.26825883768E+01
 0.25247778005E+01 0.26834212406E+01 0.32499316588E+01 0.43365038823E+01 0.73580428538E+01
 0.15962351828E+02 0.31098095537E+02 0.49441851415E+02 0.99748381271E+02 0.99736820866E+02
 0.84096939780E+02 0.59221800058E+02 0.34154772133E+02 0.15963146543E+02 0.68753257082E+01
 0.41428292440E+01 0.31446895670E+01 0.27182479471E+01 0.27168788271E+01 0.31428244182E+01
 0.41440929049E+01 0.68782462397E+01 0.15962351828E+02 0.34153209730E+02 0.59231510310E+02
 0.84117817283E+02 0.12827285745E+03 0.11804027237E+03 0.91645600790E+02 0.59216486525E+02
 0.31100242235E+02 0.13281002070E+02 0.57623984462E+01 0.38229924366E+01 0.30257320573E+01
 0.27999489166E+01 0.30249804551E+01 0.38233623303E+01 0.57621312739E+01 0.13276781432E+02
 0.31098095537E+02 0.59231510310E+02 0.91680850113E+02 0.11807232626E+03 0.13929406887E+03
 0.11802018293E+03 0.84078984988E+02 0.49434825587E+02 0.23409275994E+02 0.93775885074E+01
 0.46945325995E+01 0.34519547156E+01 0.29313185058E+01 0.29320430329E+01 0.34539970533E+01
 0.46943451349E+01 0.93694506155E+01 0.23398399675E+02 0.49441851415E+02 0.84117817283E+02
 0.11807232626E+03 0.13931864944E+03 0.84075205069E+02 0.59156807703E+02 0.34104254237E+02
 0.15967646827E+02 0.69192763065E+01 0.41925309876E+01 0.31896279374E+01 0.27631222984E+01
 0.27640011932E+01 0.31885787151E+01 0.41881831049E+01 0.69211725906E+01 0.15982623720E+02
 0.34121829458E+02 0.59160680662E+02 0.84065584449E+02 0.99750734424E+02 0.99757313624E+02
 0.59156807703E+02 0.37425114351E+02 0.19272012393E+02 0.86158801423E+01 0.46821439391E+01
 0.34539984378E+01 0.28244628781E+01 0.26529285690E+01 0.28292456984E+01 0.34511999833E+01
 0.46728372458E+01 0.86175202925E+01 0.19291916961E+02 0.37449395233E+02 0.59170147811E+02
 0.77134359869E+02 0.84130493385E+02 0.77131702904E+02 0.34104254237E+02 0.19272012393E+02
 0.93316869450E+01 0.50257731098E+01 0.36532024095E+01 0.28966882568E+01 0.25868792019E+01
 0.25886721924E+01 0.28983609639E+01 0.36492667686E+01 0.50191038583E+01 0.93338150942E+01
 0.19289947513E+02 0.34130801779E+02 0.49451083914E+02 0.59251842231E+02 0.59244170430E+02
 0.49429817648E+02 0.15967646827E+02 0.86158801423E+01 0.50257731098E+01 0.37252696669E+01
 0.29443109541E+01 0.25582203529E+01 0.24520315648E+01 0.25580159222E+01 0.29440264224E+01
 0.37233983223E+01 0.50219385533E+01 0.86158529473E+01 0.15979871951E+02 0.25722582945E+02
 0.34173668011E+02 0.37518967714E+02 0.34153886715E+02 0.25699074389E+02 0.69192763065E+01
 0.46821439391E+01 0.36532024095E+01 0.29443109541E+01 0.25498980695E+01 0.23912477848E+01
 0.23910028322E+01 0.25494085798E+01 0.29431753245E+01 0.36501772441E+01 0.46785196932E+01
 0.69204353040E+01 0.11083247481E+02 0.15966604654E+02 0.19283009676E+02 0.19276545296E+02
 0.15953031579E+02 0.11073489615E+02 0.41925309876E+01 0.34539984378E+01 0.28966882568E+01
 0.25582203529E+01 0.23912477848E+01 0.23417120517E+01 0.23905104895E+01 0.25577764807E+01
 0.28958846289E+01 0.34519613423E+01 0.41912005428E+01 0.52277799065E+01 0.68760784958E+01
 0.85445151812E+01 0.92530137991E+01 0.85418471761E+01 0.68724104170E+01 0.52260728170E+01
 0.31896279374E+01 0.28244628781E+01 0.25868792019E+01 0.24520315648E+01 0.23910028322E+01
 0.23905104895E+01 0.24519584995E+01 0.25887725761E+01 0.28265238956E+01 0.31887421380E+01
 0.36570488373E+01 0.41443219980E+01 0.45909751496E+01 0.49108727017E+01 0.49095833051E+01
 0.45895443773E+01 0.41459585925E+01 0.36602995276E+01 0.27631222984E+01 0.26529285690E+01
 0.25886721924E+01 0.25580159222E+01 0.25494085798E+01 0.25577764807E+01 0.25887725761E+01
 0.26536389685E+01 0.27640002740E+01 0.29292727653E+01 0.31434387015E+01 0.33684296892E+01
 0.35414612165E+01 0.36064701332E+01 0.35417057614E+01 0.33687485174E+01 0.31435083440E+01
 0.29288088984E+01 0.27640011932E+01 0.28292456984E+01 0.28983609639E+01 0.29440264224E+01
 0.29431753245E+01 0.28958846289E+01 0.28265238956E+01 0.27640002740E+01 0.27254958789E+01
 0.27179814243E+01 0.27424834191E+01 0.27873637945E+01 0.28245052296E+01 0.28261253636E+01
 0.27896821845E+01 0.27413578545E+01 0.27133659401E+01 0.27216085690E+01 0.31885787151E+01
 0.34511999833E+01 0.36492667686E+01 0.37233983223E+01 0.36501772441E+01 0.34519613423E+01
 0.31887421380E+01 0.29292727653E+01 0.27179814243E+01 0.25680237993E+01 0.24764849995E+01
 0.24327580935E+01 0.24208827495E+01 0.24323849303E+01 0.24759506131E+01 0.25674637351E+01
 0.27175695369E+01 0.29291712176E+01 0.41881831049E+01 0.46728372458E+01 0.50191038583E+01
 0.50219385533E+01 0.46785196932E+01 0.41912005428E+01 0.36570488373E+01 0.31434387015E+01
 0.27424834191E+01 0.24764849995E+01 0.23233020533E+01 0.22546919224E+01 0.22540440921E+01
 0.23216335867E+01 0.24753780613E+01 0.27441899391E+01 0.31473840937E+01 0.36590317222E+01
 0.69211725906E+01 0.86175202925E+01 0.93338150942E+01 0.86158529473E+01 0.69204353040E+01
 0.52277799065E+01 0.41443219980E+01 0.33684296892E+01 0.27873637945E+01 0.24327580935E+01
 0.22546919224E+01 0.22011189102E+01 0.22543948573E+01 0.24333473025E+01 0.27883558754E+01
 0.33677697702E+01 0.41418457464E+01 0.52260406311E+01 0.15982623720E+02 0.19291916961E+02
 0.19289947513E+02 0.15979871951E+02 0.11083247481E+02 0.68760784958E+01 0.45909751496E+01
 0.35414612165E+01 0.28245052296E+01 0.24208827495E+01 0.22540440921E+01 0.22543948573E+01
 0.24218708000E+01 0.28255512703E+01 0.35409836408E+01 0.45877288409E+01 0.68719198869E+01
 0.11082231170E+02 0.34121829458E+02 0.37449395233E+02 0.34130801779E+02 0.25722582945E+02
 0.15966604654E+02 0.85445151812E+01 0.49108727017E+01 0.36064701332E+01 0.28261253636E+01
 0.24323849303E+01 0.23216335867E+01 0.24333473025E+01 0.28255512703E+01 0.36046816378E+01
 0.49113290019E+01 0.85470731549E+01 0.15965315730E+02 0.25714175832E+02 0.59160680662E+02
 0.59170147811E+02 0.49451083914E+02 0.34173668011E+02 0.19283009676E+02 0.92530137991E+01
 0.49095833051E+01 0.35417057614E+01 0.27896821845E+01 0.24759506131E+01 0.24753780613E+01
 0.27883558754E+01 0.35409836408E+01 0.49113290019E+01 0.92564492657E+01 0.19281687465E+02
 0.34160983385E+02 0.49431975757E+02 0.84065584449E+02 0.77134359869E+02 0.59251842231E+02
 0.37518967714E+02 0.19276545296E+02 0.85418471761E+01 0.45895443773E+01 0.33687485174E+01
 0.27413578545E+01 0.25674637351E+01 0.27441899391E+01 0.33677697702E+01 0.45877288409E+01
 0.85470731549E+01 0.19281687465E+02 0.37507094418E+02 0.59222273043E+02 0.77108685321E+02
 0.99750734424E+02 0.84130493385E+02 0.59244170430E+02 0.34153886715E+02 0.15953031579E+02
 0.68724104170E+01 0.41459585925E+01 0.31435083440E+01 0.27133659401E+01 0.27175695369E+01
 0.31473840937E+01 0.41418457464E+01 0.68719198869E+01 0.15965315730E+02 0.34160983385E+02
 0.59222273043E+02 0.84089320865E+02 0.99729566279E+02 0.99757313624E+02 0.77131702904E+02
 0.49429817648E+02 0.25699074389E+02 0.11073489615E+02 0.52260728170E+01 0.36602995276E+01
 0.29288088984E+01 0.27216085690E+01 0.29291712176E+01 0.36590317222E+01 0.52260406311E+01
 0.11082231170E+02 0.25714175832E+02 0.49431975757E+02 0.77108685321E+02 0.99729566279E+02
 0.10850983891E+03 0.45162104244E+02 0.28341350415E+02 0.14590736832E+02 0.69147357522E+01
 0.42716489982E+01 0.32430486904E+01 0.27101643409E+01 0.25597506396E+01 0.27085766684E+01
 0.32470521526E+01 0.42818740621E+01 0.69198434599E+01 0.14578566500E+02 0.28311471159E+02
 0.45126853546E+02 0.59150306635E+02 0.64630093706E+02 0.59173870427E+02 0.28341350415E+02
 0.16022436867E+02 0.79820069033E+01 0.46626779640E+01 0.34971782319E+01 0.28219557526E+01
 0.25413152915E+01 0.25412802593E+01 0.28225561031E+01 0.35020089725E+01 0.46737644387E+01
 0.79894428473E+01 0.16009756840E+02 0.28306597932E+02 0.41158641110E+02 0.49425133285E+02
 0.49440985038E+02 0.41196020491E+02 0.14590736832E+02 0.79820069033E+01 0.48224987845E+01
 0.36384040874E+01 0.29115762007E+01 0.25465790678E+01 0.24397329080E+01 0.25422575102E+01
 0.29115349114E+01 0.36487589321E+01 0.48387269365E+01 0.79902036983E+01 0.14577111438E+02
 0.23394245533E+02 0.31090715056E+02 0.34163428084E+02 0.31120623481E+02 0.23427905046E+02
 0.69147357522E+01 0.46626779640E+01 0.36384040874E+01 0.29412836215E+01 0.25517627864E+01
 0.23907069258E+01 0.23887184996E+01 0.25491218713E+01 0.29438681243E+01 0.36485705172E+01
 0.46764710671E+01 0.69211408625E+01 0.11082344136E+02 0.15959390258E+02 0.19279118510E+02
 0.19291391907E+02 0.15982666889E+02 0.11093805924E+02 0.42716489982E+01 0.34971782319E+01
 0.29115762007E+01 0.25517627864E+01 0.23729308630E+01 0.23216899277E+01 0.23744202586E+01
 0.25497842976E+01 0.29082587675E+01 0.35015850140E+01 0.42842556258E+01 0.54643514900E+01
 0.73565249177E+01 0.92550027299E+01 0.10063413112E+02 0.92652105208E+01 0.73620007476E+01
 0.54563206450E+01 0.32430486904E+01 0.28219557526E+01 0.25465790678E+01 0.23907069258E+01
 0.23216899277E+01 0.23225634500E+01 0.23910622674E+01 0.25440752525E+01 0.28199742370E+01
 0.32469080044E+01 0.37871621387E+01 0.43378569450E+01 0.49117447791E+01 0.53438145984E+01
 0.53463387824E+01 0.49143337742E+01 0.43338497468E+01 0.37792349345E+01 0.27101643409E+01
 0.25413152915E+01 0.24397329080E+01 0.23887184996E+01 0.23744202586E+01 0.23910622674E+01
 0.24431660503E+01 0.25435232801E+01 0.27096327753E+01 0.29520993252E+01 0.32502937090E+01
 0.35417948931E+01 0.37502721494E+01 0.38242669085E+01 0.37486929844E+01 0.35406910912E+01
 0.32512920089E+01 0.29541956283E+01 0.25597506396E+01 0.25412802593E+01 0.25422575102E+01
 0.25491218713E+01 0.25497842976E+01 0.25440752525E+01 0.25435232801E+01 0.25610299503E+01
 0.26058380089E+01 0.26834071169E+01 0.27877530759E+01 0.28923948187E+01 0.29583613488E+01
 0.29577716062E+01 0.28918261606E+01 0.27887860080E+01 0.26853310755E+01 0.26065585139E+01
 0.27085766684E+01 0.28225561031E+01 0.29115349114E+01 0.29438681243E+01 0.29082587675E+01
 0.28199742370E+01 0.27096327753E+01 0.26058380089E+01 0.25258485087E+01 0.24767529883E+01
 0.24575173837E+01 0.24575366740E+01 0.24607495856E+01 0.24588232491E+01 0.24590756877E+01
 0.24768214102E+01 0.25234080399E+01 0.26024315334E+01 0.32470521526E+01 0.35020089725E+01
 0.36487589321E+01 0.36485705172E+01 0.35015850140E+01 0.32469080044E+01 0.29520993252E+01
 0.26834071169E+01 0.24767529883E+01 0.23366671879E+01 0.22537340265E+01 0.22164727838E+01
 0.22167138119E+01 0.22544085114E+01 0.23373005962E+01 0.24766034161E+01 0.26825627696E+01
 0.29515131061E+01 0.42818740621E+01 0.46737644387E+01 0.48387269365E+01 0.46764710671E+01
 0.42842556258E+01 0.37871621387E+01 0.32502937090E+01 0.27877530759E+01 0.24575173837E+01
 0.22537340265E+01 0.21467162284E+01 0.21137905199E+01 0.21468413168E+01 0.22533558653E+01
 0.24574475334E+01 0.27894351471E+01 0.32528040945E+01 0.37876655652E+01 0.69198434599E+01
 0.79894428473E+01 0.79902036983E+01 0.69211408625E+01 0.54643514900E+01 0.43378569450E+01
 0.35417948931E+01 0.28923948187E+01 0.24575366740E+01 0.22164727838E+01 0.21137905199E+01
 0.21140356925E+01 0.22168117611E+01 0.24574623898E+01 0.28922176362E+01 0.35421523732E+01
 0.43384120650E+01 0.54640034847E+01 0.14578566500E+02 0.16009756840E+02 0.14577111438E+02
 0.11082344136E+02 0.73565249177E+01 0.49117447791E+01 0.37502721494E+01 0.29583613488E+01
 0.24607495856E+01 0.22167138119E+01 0.21468413168E+01 0.22168117611E+01 0.24610223370E+01
 0.29585065971E+01 0.37498802294E+01 0.49111786799E+01 0.73568141365E+01 0.11083799822E+02
 0.28311471159E+02 0.28306597932E+02 0.23394245533E+02 0.15959390258E+02 0.92550027299E+01
 0.53438145984E+01 0.38242669085E+01 0.29577716062E+01 0.24588232491E+01 0.22544085114E+01
 0.22533558653E+01 0.24574623898E+01 0.29585065971E+01 0.38258018147E+01 0.53432024652E+01
 0.92540015029E+01 0.15963514989E+02 0.23403140882E+02 0.45126853546E+02 0.41158641110E+02
 0.31090715056E+02 0.19279118510E+02 0.10063413112E+02 0.53463387824E+01 0.37486929844E+01
 0.28918261606E+01 0.24590756877E+01 0.23373005962E+01 0.24574475334E+01 0.28922176362E+01
 0.37498802294E+01 0.53432024652E+01 0.10058034419E+02 0.19281674211E+02 0.31104939023E+02
 0.41173087822E+02 0.59150306635E+02 0.49425133285E+02 0.34163428084E+02 0.19291391907E+02
 0.92652105208E+01 0.49143337742E+01 0.35406910912E+01 0.27887860080E+01 0.24768214102E+01
 0.24766034161E+01 0.27894351471E+01 0.35421523732E+01 0.49111786799E+01 0.92540015029E+01
 0.19281674211E+02 0.34170194001E+02 0.49445806365E+02 0.59161955877E+02 0.64630093706E+02
 0.49440985038E+02 0.31120623481E+02 0.15982666889E+02 0.73620007476E+01 0.43338497468E+01
 0.32512920089E+01 0.26853310755E+01 0.25234080399E+01 0.26825627696E+01 0.32528040945E+01
 0.43384120650E+01 0.73568141365E+01 0.15963514989E+02 0.31104939023E+02 0.49445806365E+02
 0.64644599929E+02 0.70550517211E+02 0.59173870427E+02 0.41196020491E+02 0.23427905046E+02
 0.11093805924E+02 0.54563206450E+01 0.37792349345E+01 0.29541956283E+01 0.26065585139E+01
 0.26024315334E+01 0.29515131061E+01 0.37876655652E+01 0.54640034847E+01 0.11083799822E+02
 0.23403140882E+02 0.41173087822E+02 0.59161955877E+02 0.70550517211E+02 0.70553560487E+02
 0.19368039143E+02 0.11148341338E+02 0.61503945468E+01 0.42083386594E+01 0.32512939620E+01
 0.26935103456E+01 0.24689486499E+01 0.24699797014E+01 0.26950466667E+01 0.32469855445E+01
 0.41924389456E+01 0.61319273209E+01 0.11148921032E+02 0.19396944491E+02 0.28319765775E+02