   1   1   1   0
  0.1185948E+02  0.2559727E-09  0.2559727E-09  0.2559727E-09  0.5000000E-15
  1.000000000000000E-004
  CAR 
 unknown system                          
     52.78284386     -8.30646492  301      4.77682871      1.00000000
     -8.306  0.0000E+00  0.0000E+00
     -8.103  0.0000E+00  0.0000E+00
     -7.899  0.0000E+00  0.0000E+00
     -7.696  0.0000E+00  0.0000E+00
     -7.492  0.0000E+00  0.0000E+00
     -7.288  0.0000E+00  0.0000E+00
     -7.085  0.0000E+00  0.0000E+00
     -6.881  0.0000E+00  0.0000E+00
     -6.677  0.0000E+00  0.0000E+00
     -6.474  0.0000E+00  0.0000E+00
     -6.270  0.0000E+00  0.0000E+00
     -6.067  0.0000E+00  0.0000E+00
     -5.863  0.0000E+00  0.0000E+00
     -5.659  0.0000E+00  0.0000E+00
     -5.456  0.4419E+00  0.8997E-01
     -5.252  0.1286E+00  0.1595E+00
     -5.048  0.6450E-01  0.2131E+00
     -4.845  0.4093E-01  0.2500E+00
     -4.641  0.7660E-01  0.2906E+00
     -4.437  0.4092E-01  0.3167E+00
     -4.234  0.5153E-01  0.3438E+00
     -4.030  0.8544E-01  0.3757E+00
     -3.827  0.8180E-01  0.4000E+00
     -3.623  0.4188E-01  0.4169E+00
     -3.419  0.4771E-16  0.4417E+00
     -3.216  0.0000E+00  0.4667E+00
     -3.012  0.0000E+00  0.4917E+00
     -2.808  0.8185E-01  0.5167E+00
     -2.605  0.4092E-01  0.5333E+00
     -2.401  0.8707E-02  0.5518E+00
     -2.198  0.2864E-08  0.5750E+00
     -1.994  0.4092E-01  0.6000E+00
     -1.790  0.2731E-01  0.6222E+00
     -1.587  0.4092E-01  0.6500E+00
     -1.383  0.5618E-01  0.6864E+00
     -1.179  0.1248E+00  0.7338E+00
     -0.976  0.1869E+00  0.8714E+00
     -0.772  0.6509E+00  0.1208E+01
     -0.568  0.3984E+00  0.1414E+01
     -0.365  0.7607E+00  0.1663E+01
     -0.161  0.8086E+00  0.2240E+01
      0.042  0.6285E+00  0.2678E+01
      0.246  0.3482E+00  0.2863E+01
      0.450  0.3425E+00  0.3036E+01
      0.653  0.6189E+00  0.3426E+01
      0.857  0.9530E+00  0.3777E+01
      1.061  0.2116E+01  0.4456E+01
      1.264  0.1828E+01  0.5631E+01
      1.468  0.7110E+00  0.5953E+01
      1.671  0.8354E+00  0.6395E+01
      1.875  0.1682E+01  0.6976E+01
      2.079  0.1179E+01  0.7957E+01
      2.282  0.1181E+01  0.8541E+01
      2.486  0.3560E+01  0.9683E+01
      2.690  0.2969E+01  0.1074E+02
      2.893  0.4121E-01  0.1078E+02
      3.097  0.3828E-01  0.1082E+02
      3.301  0.1225E+00  0.1085E+02
      3.504  0.3947E-01  0.1087E+02
      3.708  0.3949E-01  0.1089E+02
      3.911  0.4364E-01  0.1091E+02
      4.115  0.0000E+00  0.1093E+02
      4.319  0.8166E-01  0.1096E+02
      4.522  0.6894E-05  0.1097E+02
      4.726  0.1034E-01  0.1099E+02
      4.930  0.7997E-01  0.1102E+02
      5.133  0.8184E-01  0.1104E+02
      5.337  0.3573E+00  0.1112E+02
      5.540  0.1543E+00  0.1122E+02
      5.744  0.1040E+00  0.1128E+02
      5.948  0.1217E+00  0.1134E+02
      6.151  0.1131E+00  0.1139E+02
      6.355  0.1229E+00  0.1143E+02
      6.559  0.1077E+00  0.1148E+02
      6.762  0.7596E-01  0.1152E+02
      6.966  0.8185E-01  0.1156E+02
      7.169  0.7426E-01  0.1160E+02
      7.373  0.1228E+00  0.1164E+02
      7.577  0.4099E-01  0.1168E+02
      7.780  0.4072E+00  0.1182E+02
      7.984  0.1412E+00  0.1192E+02
      8.188  0.9406E-01  0.1199E+02
      8.391  0.1234E+00  0.1205E+02
      8.595  0.1213E+00  0.1211E+02
      8.799  0.3962E-01  0.1215E+02
      9.002  0.2724E-02  0.1218E+02
      9.206  0.7942E-01  0.1224E+02
      9.409  0.1185E+00  0.1228E+02
      9.613  0.1711E+00  0.1233E+02
      9.817  0.1102E+00  0.1238E+02
     10.020  0.7292E-01  0.1243E+02
     10.224  0.3164E-01  0.1250E+02
     10.428  0.8474E-01  0.1253E+02
     10.631  0.7858E-01  0.1256E+02
     10.835  0.8184E-01  0.1257E+02
     11.038  0.7009E+00  0.1273E+02
     11.242  0.3955E+00  0.1301E+02
     11.446  0.1637E+00  0.1313E+02
     11.649  0.3014E+00  0.1324E+02
     11.853  0.1232E+00  0.1334E+02
     12.057  0.1600E+00  0.1342E+02
     12.260  0.2146E+00  0.1349E+02
     12.464  0.9117E-01  0.1354E+02
     12.668  0.2450E+00  0.1362E+02
     12.871  0.1167E+00  0.1369E+02
     13.075  0.1976E+00  0.1377E+02
     13.278  0.4199E-01  0.1382E+02
     13.482  0.7991E-01  0.1387E+02
     13.686  0.8185E-01  0.1394E+02
     13.889  0.8185E-01  0.1399E+02
     14.093  0.8191E-01  0.1404E+02
     14.297  0.8165E-01  0.1411E+02
     14.500  0.4092E-01  0.1415E+02
     14.704  0.4092E-01  0.1420E+02
     14.907  0.8704E-10  0.1426E+02
     15.111  0.8779E-01  0.1431E+02
     15.315  0.8184E-01  0.1436E+02
     15.518  0.8185E-01  0.1441E+02
     15.722  0.8083E-01  0.1447E+02
     15.926  0.4128E-01  0.1450E+02
     16.129  0.1061E+00  0.1457E+02
     16.333  0.1226E+00  0.1462E+02
     16.537  0.8186E-01  0.1468E+02
     16.740  0.1361E+00  0.1475E+02
     16.944  0.7467E+00  0.1497E+02
     17.147  0.2267E+00  0.1510E+02
     17.351  0.2051E+00  0.1518E+02
     17.555  0.2376E+00  0.1527E+02
     17.758  0.7007E-01  0.1531E+02
     17.962  0.1637E+00  0.1539E+02
     18.166  0.6089E-01  0.1543E+02
     18.369  0.1228E+00  0.1550E+02
     18.573  0.1541E+00  0.1555E+02
     18.776  0.4125E-01  0.1558E+02
     18.980  0.3834E-01  0.1563E+02
     19.184  0.2487E-10  0.1569E+02
     19.387  0.6793E-01  0.1571E+02
     19.591  0.8185E-01  0.1576E+02
     19.795  0.4092E-01  0.1579E+02
     19.998  0.7862E-01  0.1582E+02
     20.202  0.0000E+00  0.1586E+02
     20.406  0.1995E+00  0.1590E+02
     20.609  0.4092E-01  0.1592E+02
     20.813  0.2027E+00  0.1597E+02
     21.016  0.0000E+00  0.1598E+02
     21.220  0.8172E-01  0.1601E+02
     21.424  0.0000E+00  0.1605E+02
     21.627  0.3443E+00  0.1614E+02
     21.831  0.1437E+00  0.1625E+02
     22.035  0.2518E+00  0.1637E+02
     22.238  0.1209E+00  0.1644E+02
     22.442  0.1145E+00  0.1651E+02
     22.645  0.2467E+00  0.1662E+02
     22.849  0.1680E+00  0.1672E+02
     23.053  0.2390E+00  0.1682E+02
     23.256  0.2066E+00  0.1691E+02
     23.460  0.4093E-01  0.1698E+02
     23.664  0.1262E+00  0.1704E+02
     23.867  0.9542E-01  0.1709E+02
     24.071  0.5397E-01  0.1715E+02
     24.274  0.1774E+00  0.1734E+02
     24.478  0.1912E+00  0.1746E+02
     24.682  0.1327E+00  0.1757E+02
     24.885  0.1592E+00  0.1765E+02
     25.089  0.2490E+00  0.1774E+02
     25.293  0.3460E+00  0.1786E+02
     25.496  0.2449E+00  0.1797E+02
     25.700  0.1243E+00  0.1806E+02
     25.904  0.3034E+00  0.1821E+02
     26.107  0.3283E+00  0.1853E+02
     26.311  0.3272E+00  0.1867E+02
     26.514  0.3609E+00  0.1882E+02
     26.718  0.1824E+00  0.1894E+02
     26.922  0.4503E+00  0.1911E+02
     27.125  0.2676E+00  0.1923E+02
     27.329  0.2493E+00  0.1933E+02
     27.533  0.3044E+00  0.1945E+02
     27.736  0.1093E+00  0.1951E+02
     27.940  0.2381E+00  0.1962E+02
     28.143  0.2483E+00  0.1969E+02
     28.347  0.1320E+00  0.1975E+02
     28.551  0.2143E+00  0.1989E+02
     28.754  0.2574E+00  0.1997E+02
     28.958  0.4169E-01  0.2006E+02
     29.162  0.5765E+00  0.2029E+02
     29.365  0.3114E+00  0.2049E+02
     29.569  0.2046E+00  0.2058E+02
     29.773  0.4966E-01  0.2064E+02
     29.976  0.1491E+00  0.2074E+02
     30.180  0.1528E+00  0.2082E+02
     30.383  0.2101E+00  0.2090E+02
     30.587  0.8622E-01  0.2094E+02
     30.791  0.4092E-01  0.2103E+02
     30.994  0.2178E+00  0.2112E+02
     31.198  0.8597E-01  0.2118E+02
     31.402  0.3090E+00  0.2128E+02
     31.605  0.2037E+00  0.2135E+02
     31.809  0.1571E+00  0.2143E+02
     32.012  0.4838E+00  0.2158E+02
     32.216  0.3272E+00  0.2178E+02
     32.420  0.3296E+00  0.2193E+02
     32.623  0.2858E+00  0.2208E+02
     32.827  0.2145E+00  0.2217E+02
     33.031  0.1223E+00  0.2224E+02
     33.234  0.7898E-01  0.2231E+02
     33.438  0.2286E+00  0.2239E+02
     33.642  0.2249E+00  0.2246E+02
     33.845  0.5691E-01  0.2253E+02
     34.049  0.6865E-01  0.2259E+02
     34.252  0.8003E-01  0.2262E+02
     34.456  0.1534E+00  0.2270E+02
     34.660  0.2243E-05  0.2271E+02
     34.863  0.7192E-01  0.2274E+02
     35.067  0.1221E+00  0.2278E+02
     35.271  0.2420E-01  0.2279E+02
     35.474  0.4092E-01  0.2282E+02
     35.678  0.5051E-01  0.2284E+02
     35.881  0.8185E-01  0.2287E+02
     36.085  0.4115E-01  0.2288E+02
     36.289  0.8185E-01  0.2292E+02
     36.492  0.8110E-15  0.2293E+02
     36.696  0.3570E-05  0.2296E+02
     36.900  0.5243E-01  0.2298E+02
     37.103  0.4088E-01  0.2302E+02
     37.307  0.4977E-04  0.2302E+02
     37.511  0.8185E-01  0.2307E+02
     37.714  0.5073E-02  0.2307E+02
     37.918  0.0000E+00  0.2309E+02
     38.121  0.3643E-01  0.2312E+02
     38.325  0.4092E-01  0.2315E+02
     38.529  0.2422E-06  0.2315E+02
     38.732  0.8023E-01  0.2318E+02
     38.936  0.0000E+00  0.2319E+02
     39.140  0.3973E-01  0.2322E+02
     39.343  0.0000E+00  0.2322E+02
     39.547  0.4795E-01  0.2325E+02
     39.750  0.0000E+00  0.2326E+02
     39.954  0.7721E-01  0.2327E+02
     40.158  0.1469E-01  0.2329E+02
     40.361  0.0000E+00  0.2329E+02
     40.565  0.0000E+00  0.2331E+02
     40.769  0.4092E-01  0.2332E+02
     40.972  0.8185E-01  0.2334E+02
     41.176  0.4092E-01  0.2335E+02
     41.380  0.4092E-01  0.2337E+02
     41.583  0.1590E-16  0.2338E+02
     41.787  0.6732E-01  0.2341E+02
     41.990  0.5128E-02  0.2342E+02
     42.194  0.3999E-01  0.2343E+02
     42.398  0.4092E-01  0.2346E+02
     42.601  0.4092E-01  0.2347E+02
     42.805  0.4092E-01  0.2349E+02
     43.009  0.0000E+00  0.2350E+02
     43.212  0.2198E-03  0.2352E+02
     43.416  0.0000E+00  0.2353E+02
     43.619  0.4092E-01  0.2355E+02
     43.823  0.4092E-01  0.2357E+02
     44.027  0.4076E-01  0.2358E+02
     44.230  0.5497E-04  0.2359E+02
     44.434  0.9413E-02  0.2361E+02
     44.638  0.3068E-01  0.2363E+02
     44.841  0.8175E-01  0.2365E+02
     45.045  0.4092E-01  0.2367E+02
     45.248  0.4125E-01  0.2368E+02
     45.452  0.4092E-01  0.2370E+02
     45.656  0.3421E-01  0.2372E+02
     45.859  0.7089E-05  0.2373E+02
     46.063  0.4092E-01  0.2375E+02
     46.267  0.7047E-01  0.2377E+02
     46.470  0.4092E-01  0.2380E+02
     46.674  0.7186E-01  0.2383E+02
     46.878  0.1228E+00  0.2387E+02
     47.081  0.8185E-01  0.2389E+02
     47.285  0.2046E+00  0.2398E+02
     47.488  0.0000E+00  0.2398E+02
     47.692  0.0000E+00  0.2398E+02
     47.896  0.0000E+00  0.2398E+02
     48.099  0.0000E+00  0.2398E+02
     48.303  0.0000E+00  0.2398E+02
     48.507  0.0000E+00  0.2398E+02
     48.710  0.0000E+00  0.2398E+02
     48.914  0.0000E+00  0.2398E+02
     49.117  0.0000E+00  0.2398E+02
     49.321  0.0000E+00  0.2399E+02
     49.525  0.0000E+00  0.2399E+02
     49.728  0.0000E+00  0.2399E+02
     49.932  0.0000E+00  0.2399E+02
     50.136  0.0000E+00  0.2400E+02
     50.339  0.0000E+00  0.2400E+02
     50.543  0.0000E+00  0.2400E+02
     50.747  0.0000E+00  0.2400E+02
     50.950  0.0000E+00  0.2400E+02
     51.154  0.0000E+00  0.2400E+02
     51.357  0.0000E+00  0.2400E+02
     51.561  0.0000E+00  0.2400E+02
     51.765  0.0000E+00  0.2400E+02
     51.968  0.0000E+00  0.2400E+02
     52.172  0.0000E+00  0.2400E+02
     52.376  0.0000E+00  0.2400E+02
     52.579  0.0000E+00  0.2400E+02
     52.783  0.0000E+00  0.2400E+02
     52.78284386     -8.30646492  301      4.77682871      1.00000000
     -8.306  0.0000E+00  0.0000E+00  0.0000E+00  0.0000E+00  0.0000E+00  0.0000E+00  0.0000E+00  0.0000E+00  0.0000E+00
     -8.103  0.0000E+00  0.0000E+00  0.0000E+00  0.0000E+00  0.0000E+00  0.0000E+00  0.0000E+00  0.0000E+00  0.0000E+00
     -7.899  0.0000E+00  0.0000E+00  0.0000E+00  0.0000E+00  0.0000E+00  0.0000E+00  0.0000E+00  0.0000E+00  0.0000E+00
     -7.696  0.0000E+00  0.0000E+00  0.0000E+00  0.0000E+00  0.0000E+00  0.0000E+00  0.0000E+00  0.0000E+00  0.0000E+00
     -7.492  0.0000E+00  0.0000E+00  0.0000E+00  0.0000E+00  0.0000E+00  0.0000E+00  0.0000E+00  0.0000E+00  0.0000E+00
     -7.288  0.0000E+00  0.0000E+00  0.0000E+00  0.0000E+00  0.0000E+00  0.0000E+00  0.0000E+00  0.0000E+00  0.0000E+00
     -7.085  0.0000E+00  0.0000E+00  0.0000E+00  0.0000E+00  0.0000E+00  0.0000E+00  0.0000E+00  0.0000E+00  0.0000E+00
     -6.881  0.0000E+00  0.0000E+00  0.0000E+00  0.0000E+00  0.0000E+00  0.0000E+00  0.0000E+00  0.0000E+00  0.0000E+00
     -6.677  0.0000E+00  0.0000E+00  0.0000E+00  0.0000E+00  0.0000E+00  0.0000E+00  0.0000E+00  0.0000E+00  0.0000E+00
     -6.474  0.0000E+00  0.0000E+00  0.0000E+00  0.0000E+00  0.0000E+00  0.0000E+00  0.0000E+00  0.0000E+00  0.0000E+00
     -6.270  0.0000E+00  0.0000E+00  0.0000E+00  0.0000E+00  0.0000E+00  0.0000E+00  0.0000E+00  0.0000E+00  0.0000E+00
     -6.067  0.0000E+00  0.0000E+00  0.0000E+00  0.0000E+00  0.0000E+00  0.0000E+00  0.0000E+00  0.0000E+00  0.0000E+00
     -5.863  0.0000E+00  0.0000E+00  0.0000E+00  0.0000E+00  0.0000E+00  0.0000E+00  0.0000E+00  0.0000E+00  0.0000E+00
     -5.659  0.0000E+00  0.0000E+00  0.0000E+00  0.0000E+00  0.0000E+00  0.0000E+00  0.0000E+00  0.0000E+00  0.0000E+00
     -5.456  0.2648E+00  0.6038E-04  0.1239E-03  0.3075E-03  0.2248E-06  0.2248E-06  0.1792E-06  0.5882E-06  0.5389E-06
     -5.252  0.7575E-01  0.1584E-03  0.3984E-03  0.9004E-03  0.3105E-05  0.3105E-05  0.2315E-05  0.1019E-04  0.6949E-05
     -5.048  0.3717E-01  0.1948E-03  0.6587E-03  0.6590E-03  0.9153E-05  0.9153E-05  0.1795E-05  0.3697E-04  0.5386E-05
     -4.845  0.2316E-01  0.2377E-07  0.2740E-07  0.1357E-02  0.1803E-08  0.1803E-08  0.1712E-04  0.2187E-08  0.5137E-04
     -4.641  0.4243E-01  0.5828E-03  0.1383E-02  0.1383E-02  0.5473E-04  0.5473E-04  0.6741E-05  0.1613E-03  0.2022E-04
     -4.437  0.2221E-01  0.6512E-12  0.1096E-02  0.1096E-02  0.9657E-11  0.9773E-11  0.1150E-04  0.1833E-03  0.3450E-04
     -4.234  0.2737E-01  0.1988E-03  0.1484E-02  0.1566E-02  0.3446E-04  0.3446E-04  0.1923E-04  0.3012E-03  0.5770E-04
     -4.030  0.4435E-01  0.9676E-03  0.2451E-02  0.2723E-02  0.2043E-03  0.2043E-03  0.3427E-04  0.5830E-03  0.1028E-03
     -3.827  0.4148E-01  0.1066E-02  0.2741E-02  0.2768E-02  0.2742E-03  0.2742E-03  0.3304E-04  0.7966E-03  0.9913E-04
     -3.623  0.2079E-01  0.1163E-02  0.1207E-02  0.1207E-02  0.3646E-03  0.3646E-03  0.1005E-05  0.3815E-03  0.3016E-05
     -3.419  0.2270E-16  0.2149E-26  0.2460E-17  0.2460E-17  0.1610E-25  0.1608E-25  0.6672E-19  0.1135E-17  0.2002E-18
     -3.216  0.0000E+00  0.0000E+00  0.0000E+00  0.0000E+00  0.0000E+00  0.0000E+00  0.0000E+00  0.0000E+00  0.0000E+00
     -3.012  0.0000E+00  0.0000E+00  0.0000E+00  0.0000E+00  0.0000E+00  0.0000E+00  0.0000E+00  0.0000E+00  0.0000E+00
     -2.808  0.3571E-01  0.3503E-11  0.2524E-02  0.7493E-02  0.2928E-10  0.3121E-10  0.7097E-03  0.1717E-02  0.2129E-02
     -2.605  0.1679E-01  0.8363E-12  0.7832E-07  0.5247E-02  0.1360E-10  0.1495E-10  0.8250E-03  0.6489E-07  0.2475E-02
     -2.401  0.3356E-02  0.1934E-12  0.3117E-12  0.1158E-02  0.3143E-11  0.3174E-11  0.2347E-03  0.4490E-11  0.7040E-03
     -2.198  0.1025E-08  0.7065E-19  0.1068E-18  0.3874E-09  0.1131E-17  0.1010E-17  0.1023E-09  0.1569E-17  0.3070E-09
     -1.994  0.1528E-01  0.6416E-11  0.3045E-02  0.3045E-02  0.2772E-10  0.2762E-10  0.1915E-03  0.3775E-02  0.5745E-03
     -1.790  0.8545E-02  0.7933E-03  0.7934E-03  0.7934E-03  0.2747E-02  0.2747E-02  0.1339E-07  0.2748E-02  0.4016E-07
     -1.587  0.1179E-01  0.1033E-02  0.1033E-02  0.1033E-02  0.4882E-02  0.4882E-02  0.4606E-12  0.4882E-02  0.1360E-11
     -1.383  0.1330E-01  0.6927E-03  0.6927E-03  0.2340E-02  0.6404E-02  0.6404E-02  0.1419E-02  0.6404E-02  0.4257E-02
     -1.179  0.2773E-01  0.2738E-03  0.3551E-02  0.7377E-02  0.8625E-02  0.8625E-02  0.4848E-02  0.1633E-01  0.1454E-01
     -0.976  0.3082E-01  0.2430E-03  0.3255E-02  0.5535E-02  0.2284E-01  0.2463E-01  0.6736E-02  0.3420E-01  0.2018E-01
     -0.772  0.3980E-01  0.7080E-03  0.4173E-02  0.3488E-02  0.8083E-02  0.1083E-01  0.1113E+00  0.2230E-01  0.3426E+00
     -0.568  0.2620E-01  0.1648E-02  0.5206E-02  0.4006E-02  0.1384E-01  0.2502E-01  0.4957E-01  0.3639E-01  0.1721E+00
     -0.365  0.1661E-01  0.1492E-02  0.6233E-02  0.3517E-02  0.5724E-02  0.3999E+00  0.4077E-01  0.2883E-01  0.1692E+00
     -0.161  0.9528E-02  0.5370E-02  0.1010E-01  0.3251E-02  0.4603E-02  0.4777E+00  0.1437E-01  0.4439E-01  0.1518E+00
      0.042  0.9427E-02  0.5490E-02  0.1138E-01  0.7744E-02  0.5100E-02  0.2080E+00  0.8695E-02  0.1817E+00  0.1198E+00
      0.246  0.1315E-02  0.5088E-02  0.5107E-02  0.3580E-02  0.2085E-02  0.1586E+00  0.1252E-01  0.1654E-01  0.1057E+00
      0.450  0.1132E-02  0.7717E-02  0.3178E-02  0.4306E-02  0.1795E-02  0.1530E+00  0.8779E-02  0.4755E-01  0.8075E-01
      0.653  0.2195E-05  0.1161E-01  0.2791E-02  0.8351E-02  0.9421E-01  0.2444E+00  0.7204E-02  0.1182E+00  0.8113E-01
      0.857  0.3194E-02  0.1445E-01  0.7771E-02  0.1191E-01  0.1906E+00  0.3264E+00  0.7559E-02  0.2230E+00  0.9529E-01
      1.061  0.5373E-03  0.5708E-02  0.2143E-02  0.8466E-02  0.4064E+00  0.5829E+00  0.2971E+00  0.3952E+00  0.3252E+00
      1.264  0.1170E-03  0.5740E-02  0.2806E-02  0.6208E-02  0.4278E+00  0.3391E+00  0.1932E+00  0.6268E+00  0.1565E+00
      1.468  0.1065E-01  0.5927E-02  0.5576E-02  0.2215E-01  0.1459E+00  0.5968E-01  0.1087E+00  0.1332E+00  0.1669E+00
      1.671  0.6513E-02  0.6795E-02  0.6773E-02  0.2105E-01  0.1331E+00  0.5208E-01  0.2829E+00  0.1279E+00  0.1464E+00
      1.875  0.9340E-02  0.7687E-02  0.7422E-02  0.1706E-01  0.1287E+00  0.5722E-01  0.9609E+00  0.1274E+00  0.3002E+00
      2.079  0.3624E-02  0.8054E-02  0.8604E-02  0.1605E-01  0.1557E+00  0.8149E-01  0.4656E+00  0.1724E+00  0.2203E+00
      2.282  0.5651E-03  0.2885E-02  0.3357E-02  0.9620E-02  0.1900E+00  0.8600E-01  0.4352E+00  0.2304E+00  0.1960E+00
      2.486  0.1368E-02  0.1197E-02  0.1518E-02  0.5572E-02  0.9197E+00  0.2162E+00  0.1407E+01  0.5084E+00  0.4655E+00
      2.690  0.1511E-02  0.3803E-02  0.4194E-02  0.4566E-02  0.2281E+01  0.4141E-03  0.4654E-02  0.6300E+00  0.1392E-01
      2.893  0.4261E-04  0.6529E-02  0.6514E-02  0.6611E-02  0.1712E-12  0.1250E-02  0.1971E-04  0.1250E-02  0.2043E-02
      3.097  0.9710E-03  0.2870E-02  0.3162E-02  0.3201E-02  0.1428E-10  0.1723E-02  0.1405E-02  0.9550E-02  0.7162E-02
      3.301  0.8927E-02  0.5058E-02  0.6019E-02  0.1957E-01  0.3550E-10  0.3462E-02  0.5561E-02  0.2312E-01  0.2282E-01
      3.504  0.3539E-02  0.8019E-08  0.1298E-02  0.1298E-02  0.3124E-10  0.6004E-08  0.2844E-02  0.1853E-01  0.8532E-02
      3.708  0.6666E-05  0.4716E-02  0.4504E-02  0.4718E-02  0.1046E-12  0.3528E-02  0.4075E-05  0.3556E-02  0.6839E-02
      3.911  0.3155E-03  0.4908E-02  0.4640E-02  0.6008E-02  0.1344E-12  0.3643E-02  0.9541E-04  0.3643E-02  0.7492E-02
      4.115  0.0000E+00  0.0000E+00  0.0000E+00  0.0000E+00  0.0000E+00  0.0000E+00  0.0000E+00  0.0000E+00  0.0000E+00
      4.319  0.9450E-02  0.5915E-11  0.2419E-02  0.2060E-01  0.2762E-10  0.4198E-10  0.3136E-02  0.1608E-01  0.9407E-02
      4.522  0.1895E-16  0.8543E-06  0.7737E-06  0.8543E-06  0.7972E-17  0.5840E-06  0.6273E-17  0.5840E-06  0.1227E-05
      4.726  0.7896E-14  0.1295E-02  0.1159E-02  0.1295E-02  0.1144E-13  0.8634E-03  0.1002E-13  0.8634E-03  0.1829E-02
      4.930  0.1925E-02  0.4948E-02  0.4370E-02  0.2634E-01  0.6357E-12  0.3215E-02  0.4607E-03  0.3215E-02  0.8234E-02
      5.133  0.9689E-03  0.5245E-02  0.4569E-02  0.2805E-01  0.3351E-12  0.3323E-02  0.2225E-03  0.3323E-02  0.7776E-02
      5.337  0.2971E-12  0.5310E-02  0.4559E-02  0.1919E+00  0.1881E-03  0.3280E-02  0.9641E-12  0.3744E-02  0.7028E-02
      5.540  0.2131E-11  0.5376E-02  0.4543E-02  0.6960E-01  0.1587E-02  0.3238E-02  0.5392E-11  0.6622E-02  0.6936E-02
      5.744  0.2121E-11  0.5444E-02  0.4524E-02  0.3999E-01  0.1548E-02  0.3200E-02  0.4681E-11  0.6519E-02  0.6835E-02
      5.948  0.4467E-11  0.5513E-02  0.4497E-02  0.4866E-01  0.2070E-02  0.3166E-02  0.9853E-11  0.9366E-02  0.6726E-02
      6.151  0.5388E-11  0.5584E-02  0.4466E-02  0.4327E-01  0.2545E-02  0.3135E-02  0.8694E-11  0.9557E-02  0.6609E-02
      6.355  0.6922E-02  0.5630E-02  0.8992E-02  0.3145E-01  0.2853E-02  0.3092E-02  0.1109E-02  0.1612E-01  0.9778E-02
      6.559  0.9204E-11  0.4128E-02  0.3153E-02  0.4373E-01  0.2916E-02  0.2220E-02  0.1170E-10  0.1124E-01  0.4569E-02
      6.762  0.1184E-10  0.1613E-03  0.1200E-03  0.3754E-01  0.3416E-02  0.8502E-04  0.1054E-10  0.9016E-02  0.1721E-03
      6.966  0.1444E-10  0.2807E-08  0.2034E-08  0.4055E-01  0.3609E-02  0.1453E-08  0.1249E-10  0.1050E-01  0.2871E-08
      7.169  0.1811E-10  0.2506E-10  0.2544E-10  0.3640E-01  0.3781E-02  0.1477E-10  0.1024E-10  0.9734E-02  0.1458E-10
      7.373  0.6592E-02  0.8638E-10  0.5386E-02  0.4525E-01  0.3935E-02  0.6201E-10  0.9081E-03  0.1988E-01  0.2724E-02
      7.577  0.2546E-10  0.2267E-10  0.3118E-10  0.1969E-01  0.4074E-02  0.2214E-10  0.2027E-11  0.4086E-02  0.8777E-11
      7.780  0.1376E+00  0.1083E-02  0.8286E-04  0.4040E-01  0.4710E-01  0.4385E-01  0.6979E-05  0.5596E-01  0.2280E-10
      7.984  0.2780E-01  0.7913E-02  0.3860E-02  0.2308E-01  0.1045E-01  0.1160E-01  0.4209E-04  0.1497E-01  0.5297E-02
      8.188  0.2079E-01  0.8546E-02  0.3671E-02  0.8551E-02  0.4555E-02  0.9410E-02  0.7534E-04  0.9412E-02  0.5003E-02
      8.391  0.3046E-01  0.3257E-02  0.1015E-02  0.2278E-01  0.7732E-02  0.9590E-02  0.9501E-04  0.1788E-01  0.1242E-04
      8.595  0.1347E-01  0.2201E-01  0.7303E-09  0.2244E-01  0.6601E-02  0.8830E-02  0.1349E-03  0.1266E-01  0.2591E-09
      8.799  0.1245E-01  0.3596E-02  0.9832E-13  0.3596E-02  0.1604E-02  0.4165E-02  0.1661E-03  0.4166E-02  0.1603E-12
      9.002  0.4890E-03  0.1053E-03  0.2781E-03  0.3945E-03  0.2839E-04  0.9767E-04  0.3745E-04  0.3857E-03  0.9859E-04
      9.206  0.1055E-01  0.4961E-02  0.5680E-11  0.2315E-01  0.1014E-02  0.4140E-02  0.2046E-03  0.1225E-01  0.1045E-10
      9.409  0.7570E-02  0.1299E-01  0.2339E-02  0.3228E-01  0.5833E-03  0.7183E-02  0.1829E-03  0.1584E-01  0.3125E-02
      9.613  0.1241E-01  0.1865E-01  0.1003E-01  0.3792E-01  0.4939E-03  0.1141E-01  0.1121E-02  0.2011E-01  0.5287E-02
      9.817  0.7137E-02  0.2117E-01  0.6183E-02  0.1629E-01  0.2351E-03  0.1219E-01  0.6937E-03  0.8051E-02  0.3425E-02
     10.020  0.4122E-02  0.1473E-01  0.5345E-02  0.9399E-02  0.6296E-04  0.8774E-02  0.6720E-03  0.4469E-02  0.1879E-02
     10.224  0.2465E-02  0.5674E-02  0.5674E-02  0.1041E-09  0.1025E-10  0.4343E-02  0.6878E-03  0.9592E-11  0.2063E-02
     10.428  0.1306E-01  0.1201E-01  0.9821E-02  0.2611E-02  0.3772E-02  0.1001E-01  0.9445E-03  0.3772E-02  0.2833E-02
     10.631  0.1827E-02  0.2532E-01  0.7546E-02  0.4102E-09  0.8282E-11  0.1325E-01  0.1103E-02  0.1602E-09  0.3308E-02
     10.835  0.9587E-03  0.2680E-01  0.7710E-02  0.2642E-09  0.7487E-11  0.1349E-01  0.1346E-02  0.9787E-10  0.4039E-02
     11.038  0.2505E+00  0.2681E-01  0.7957E-02  0.1772E-09  0.6491E-10  0.1277E-01  0.5618E-01  0.1250E-09  0.1688E+00
     11.242  0.1205E+00  0.2728E-01  0.1122E-01  0.1010E-09  0.3259E-10  0.9994E-02  0.2851E-01  0.7570E-10  0.8934E-01
     11.446  0.3865E-01  0.2212E-01  0.7291E-02  0.3072E-02  0.3580E-02  0.1227E-01  0.5159E-02  0.3580E-02  0.2052E-01
     11.649  0.1120E+00  0.2080E-01  0.6740E-02  0.2395E-02  0.1545E-10  0.1335E-01  0.1432E-01  0.3708E-10  0.4880E-01
     11.853  0.4344E-01  0.4598E-02  0.1023E-01  0.7636E-03  0.5405E-11  0.4740E-02  0.4153E-02  0.5187E-03  0.1821E-01
     12.057  0.4065E-01  0.5859E-02  0.1827E-01  0.3663E-02  0.7000E-11  0.5162E-02  0.5261E-02  0.1383E-10  0.3093E-01
     12.260  0.1055E-01  0.2398E-01  0.4033E-01  0.4212E-04  0.5506E-02  0.1069E-01  0.1794E-03  0.1950E-04  0.4683E-01
     12.464  0.1088E-01  0.7481E-02  0.1683E-01  0.1643E-02  0.1455E-06  0.5377E-02  0.7504E-03  0.2900E-03  0.1591E-01
     12.668  0.1190E+00  0.2351E-01  0.7773E-02  0.1534E-03  0.5297E-02  0.1025E-01  0.1029E-01  0.2748E-04  0.9389E-03
     12.871  0.2909E-01  0.6668E-02  0.1758E-01  0.1737E-02  0.1555E-05  0.4006E-02  0.2147E-02  0.7492E-03  0.1553E-01
     13.075  0.5639E-01  0.7274E-02  0.1694E-01  0.1268E-01  0.3451E-02  0.4808E-02  0.6356E-02  0.4469E-02  0.2322E-01
     13.278  0.1630E-01  0.6578E-04  0.6722E-02  0.5981E-04  0.1135E-05  0.1230E-04  0.1065E-02  0.8709E-05  0.4050E-02
     13.482  0.2789E-01  0.7175E-09  0.1030E-01  0.2798E-02  0.4829E-11  0.4019E-09  0.2273E-02  0.1477E-02  0.8403E-02
     13.686  0.6808E-02  0.6074E-02  0.1111E-01  0.6075E-02  0.3410E-02  0.4575E-02  0.7151E-08  0.4575E-02  0.1061E-01
     13.889  0.3172E-01  0.3489E-02  0.9505E-02  0.3487E-02  0.1184E-03  0.4455E-03  0.2929E-02  0.4452E-03  0.3851E-02
     14.093  0.1325E-01  0.1628E-01  0.3449E-02  0.3346E-02  0.5923E-02  0.5923E-02  0.1286E-02  0.1894E-02  0.3880E-02
     14.297  0.1099E-01  0.2723E-02  0.1801E-01  0.2725E-02  0.3162E-11  0.1344E-02  0.3707E-03  0.1345E-02  0.1345E-01
     14.500  0.1671E-01  0.4439E-02  0.2491E-06  0.4437E-02  0.2300E-03  0.4907E-03  0.2398E-02  0.4903E-03  0.6546E-07
     14.704  0.9415E-02  0.2328E-10  0.1285E-01  0.1055E-10  0.4718E-12  0.3203E-11  0.2304E-03  0.1323E-11  0.3067E-02
     14.907  0.4581E-18  0.6224E-11  0.1373E-10  0.6229E-11  0.1025E-19  0.3146E-11  0.6348E-19  0.3147E-11  0.2037E-10
     15.111  0.1529E-01  0.2066E-01  0.3225E-02  0.4846E-02  0.6532E-02  0.6654E-02  0.2292E-02  0.4621E-03  0.5659E-03
     15.315  0.7249E-02  0.2983E-02  0.2153E-01  0.2985E-02  0.5636E-11  0.1543E-02  0.1046E-03  0.1543E-02  0.1188E-01
     15.518  0.2068E-01  0.5594E-02  0.5580E-06  0.1434E-01  0.4455E-03  0.4944E-03  0.5361E-02  0.4944E-03  0.8631E-02
     15.722  0.5410E-02  0.3027E-02  0.2287E-01  0.3028E-02  0.6571E-11  0.1588E-02  0.4825E-04  0.1588E-02  0.1114E-01
     15.926  0.4970E-02  0.1824E-03  0.1789E-01  0.9326E-11  0.2397E-12  0.3667E-04  0.3698E-04  0.5167E-12  0.1655E-02
     16.129  0.2519E-02  0.3541E-01  0.1235E-01  0.1051E-03  0.6180E-02  0.9785E-02  0.4560E-04  0.3105E-11  0.9171E-03
     16.333  0.4264E-02  0.3242E-01  0.3060E-01  0.2336E-09  0.1034E-11  0.4726E-02  0.6899E-04  0.1109E-09  0.1250E-02
     16.537  0.2940E-02  0.1099E-01  0.3215E-01  0.8622E-10  0.6922E-11  0.1303E-02  0.4975E-04  0.4659E-11  0.8509E-03
     16.740  0.1571E-02  0.3526E-01  0.3559E-01  0.9917E-03  0.1832E-11  0.2514E-02  0.2406E-04  0.5444E-03  0.3362E-02
     16.944  0.9144E-02  0.1924E+00  0.2209E+00  0.5080E-02  0.4080E-04  0.1413E-03  0.7424E-03  0.3735E-02  0.2048E-02
     17.147  0.6057E-10  0.5649E-01  0.5890E-01  0.3079E-02  0.3503E-03  0.1717E-02  0.6695E-03  0.2067E-02  0.9131E-02
     17.351  0.4051E-02  0.5078E-01  0.5075E-01  0.4000E-02  0.4288E-02  0.3515E-02  0.1023E-02  0.4285E-02  0.3371E-03
     17.555  0.3612E-02  0.4945E-01  0.5173E-01  0.1063E-01  0.1034E-02  0.1740E-02  0.3949E-02  0.2774E-02  0.1660E-01
     17.758  0.2578E-04  0.2145E-01  0.1154E-01  0.2024E-04  0.4807E-02  0.4805E-02  0.1032E-02  0.1100E-05  0.3414E-03
     17.962  0.1127E-01  0.1848E-01  0.2612E-01  0.1249E-01  0.3549E-02  0.5307E-02  0.1792E-02  0.9595E-02  0.1068E-01
     18.166  0.3513E-06  0.1696E-01  0.1696E-01  0.3052E-06  0.4388E-07  0.1517E-07  0.2224E-02  0.1516E-07  0.7415E-03
     18.369  0.4215E-10  0.2786E-01  0.1641E-01  0.3035E-02  0.6868E-02  0.8642E-02  0.1758E-02  0.1774E-02  0.9210E-02
     18.573  0.2486E-02  0.3648E-01  0.3648E-01  0.3028E-02  0.5590E-02  0.2746E-02  0.1959E-02  0.5590E-02  0.6529E-03
     18.776  0.4421E-12  0.1128E-01  0.1128E-01  0.1274E-12  0.6742E-06  0.2345E-12  0.2169E-02  0.6343E-06  0.7231E-03
     18.980  0.5612E-02  0.4018E-03  0.5822E-02  0.5421E-02  0.8665E-11  0.8701E-11  0.5277E-03  0.4205E-02  0.1100E-02
     19.184  0.1761E-11  0.2388E-11  0.2388E-11  0.2388E-11  0.2204E-11  0.2203E-11  0.3456E-23  0.2203E-11  0.7317E-22
     19.387  0.1419E-09  0.7147E-02  0.1800E-01  0.1098E-01  0.1385E-02  0.1002E-11  0.2806E-02  0.1361E-02  0.9353E-03
     19.591  0.5949E-02  0.2944E-02  0.1066E-01  0.8894E-02  0.1257E-10  0.1804E-02  0.3530E-03  0.6960E-02  0.9359E-02
     19.795  0.2318E-02  0.1383E-06  0.2433E-06  0.8592E-02  0.3098E-07  0.5638E-11  0.3235E-02  0.5345E-07  0.9704E-02
     19.998  0.1394E-10  0.2908E-02  0.1449E-01  0.1281E-01  0.5631E-11  0.1802E-02  0.3258E-02  0.1802E-02  0.9252E-02
     20.202  0.0000E+00  0.0000E+00  0.0000E+00  0.0000E+00  0.0000E+00  0.0000E+00  0.0000E+00  0.0000E+00  0.0000E+00
     20.406  0.5840E-02  0.3080E-01  0.3443E-01  0.2205E-01  0.6741E-02  0.2038E-02  0.6976E-02  0.7219E-02  0.9316E-02
     20.609  0.2253E-02  0.3830E-02  0.3830E-02  0.3830E-02  0.3676E-02  0.3676E-02  0.2900E-13  0.3675E-02  0.6471E-12
     20.813  0.5075E-02  0.3153E-01  0.3521E-01  0.2166E-01  0.7554E-02  0.1986E-02  0.7235E-02  0.7993E-02  0.9267E-02
     21.016  0.0000E+00  0.0000E+00  0.0000E+00  0.0000E+00  0.0000E+00  0.0000E+00  0.0000E+00  0.0000E+00  0.0000E+00
     21.220  0.2126E-04  0.2723E-02  0.1448E-01  0.1323E-01  0.1244E-05  0.1716E-02  0.4718E-02  0.1716E-02  0.9216E-02
     21.424  0.0000E+00  0.0000E+00  0.0000E+00  0.0000E+00  0.0000E+00  0.0000E+00  0.0000E+00  0.0000E+00  0.0000E+00
     21.627  0.1014E-05  0.2854E-03  0.1057E-01  0.1045E-01  0.5783E-10  0.2191E+00  0.5033E-02  0.1282E-03  0.2229E-02
     21.831  0.1425E-03  0.7604E-03  0.2606E-03  0.9998E-11  0.2825E-10  0.1017E+00  0.1505E-04  0.4566E-11  0.4519E-04
     22.035  0.5201E-02  0.1571E-02  0.1691E-01  0.2238E-01  0.6288E-10  0.8770E-01  0.9208E-02  0.6244E-02  0.1318E-01
     22.238  0.1721E-02  0.1877E-02  0.3126E-03  0.1364E-10  0.5206E-11  0.7854E-01  0.1926E-03  0.2088E-10  0.5778E-03
     22.442  0.3189E-02  0.2027E-03  0.8525E-02  0.8322E-02  0.9580E-11  0.4835E-01  0.5212E-02  0.8456E-11  0.2717E-02
     22.645  0.1766E-01  0.1321E-01  0.1015E-01  0.1965E-01  0.5513E-02  0.7075E-01  0.4412E-02  0.1031E-01  0.3860E-02
     22.849  0.1248E-01  0.2602E-02  0.2484E-04  0.1811E-10  0.9996E-11  0.8644E-01  0.1592E-02  0.1596E-10  0.4778E-02
     23.053  0.2122E-01  0.1158E-01  0.4226E-03  0.8302E-02  0.1508E-02  0.9492E-01  0.5149E-02  0.7539E-04  0.7657E-02
     23.256  0.1278E-01  0.2226E-01  0.1988E-01  0.6077E-03  0.8723E-02  0.5022E-01  0.1880E-02  0.9369E-02  0.5640E-02
     23.460  0.6130E-02  0.1202E-05  0.5858E-03  0.5870E-03  0.2072E-06  0.2555E-05  0.9740E-03  0.1222E-01  0.2921E-02