    1    1    1    1
  0.1185948E+02  0.2559727E-09  0.2559727E-09  0.2559727E-09  0.5000000E-15
  1.000000000000000E-004
  CAR 
 unknown system                          
   11  240   12
 
  0.0000000E+00  0.0000000E+00  0.0000000E+00  0.4166667E-02
   1       -5.5297
   2        1.0655
   3        1.0655
   4        1.0655
   5        1.9064
   6        1.9064
   7       26.8868
   8       29.1586
   9       29.1589
  10       29.1589
  11       31.9928
  12       31.9931
 
  0.1282051E-01  0.0000000E+00  0.1282051E-01  0.4166667E-02
   1       -5.5217
   2        1.0626
   3        1.0660
   4        1.0660
   5        1.9028
   6        1.9073
   7       26.8542
   8       29.0509
   9       29.0510
  10       29.1226
  11       32.0350
  12       32.0693
 
  0.2564103E-01  0.0000000E+00  0.2564103E-01  0.4166667E-02
   1       -5.4978
   2        1.0524
   3        1.0699
   4        1.0699
   5        1.8953
   6        1.9079
   7       26.7596
   8       28.7641
   9       28.7643
  10       29.0172
  11       32.1087
  12       32.3297
 
  0.3846154E-01  0.0000000E+00  0.3846154E-01  0.4166667E-02
   1       -5.4579
   2        1.0400
   3        1.0793
   4        1.0794
   5        1.8842
   6        1.9122
   7       26.6120
   8       28.3735
   9       28.3736
  10       28.8521
  11       32.3401
  12       32.7446
 
  0.5128205E-01  0.0000000E+00  0.5128205E-01  0.4166667E-02
   1       -5.4022
   2        1.0228
   3        1.0926
   4        1.0926
   5        1.8688
   6        1.9182
   7       26.4241
   8       27.9293
   9       27.9294
  10       28.6386
  11       32.6465
  12       33.2232
 
  0.6410256E-01  0.0000000E+00  0.6410256E-01  0.4166667E-02
   1       -5.3307
   2        1.0011
   3        1.1097
   4        1.1098
   5        1.8494
   6        1.9260
   7       26.2079
   8       27.4586
   9       27.4587
  10       28.3887
  11       33.0156
  12       33.7379
 
  0.7692308E-01  0.0000000E+00  0.7692308E-01  0.4166667E-02
   1       -5.2437
   2        0.9750
   3        1.1307
   4        1.1307
   5        1.8262
   6        1.9354
   7       25.9737
   8       26.9758
   9       26.9759
  10       28.1126
  11       33.4369
  12       34.2736
 
  0.8974359E-01  0.0000000E+00  0.8974359E-01  0.4166667E-02
   1       -5.1412
   2        0.9446
   3        1.1553
   4        1.1554
   5        1.7994
   6        1.9465
   7       25.7295
   8       26.4886
   9       26.4887
  10       27.8186
  11       33.9023
  12       34.1551
 
  0.1025641E+00  0.0000000E+00  0.1025641E+00  0.4166667E-02
   1       -5.0236
   2        0.9101
   3        1.1837
   4        1.1837
   5        1.7694
   6        1.9590
   7       25.4811
   8       26.0018
   9       26.0019
  10       27.5125
  11       33.3740
  12       34.4057
 
  0.1153846E+00  0.0000000E+00  0.1153846E+00  0.4166667E-02
   1       -4.8911
   2        0.8720
   3        1.2156
   4        1.2156
   5        1.7366
   6        1.9731
   7       25.2329
   8       25.5182
   9       25.5183
  10       27.1981
  11       32.5504
  12       34.9424
 
  0.1282051E+00  0.0000000E+00  0.1282051E+00  0.4166667E-02
   1       -4.7441
   2        0.8303
   3        1.2511
   4        1.2511
   5        1.7015
   6        1.9884
   7       24.9879
   8       25.0398
   9       25.0399
  10       26.8768
  11       31.7136
  12       35.5090
 
  0.1410256E+00  0.0000000E+00  0.1410256E+00  0.4166667E-02
   1       -4.5829
   2        0.7855
   3        1.2900
   4        1.2900
   5        1.6645
   6        2.0051
   7       24.5680
   8       24.5681
   9       24.7484
  10       26.5481
  11       30.8806
  12       36.1031
 
  0.1538462E+00  0.0000000E+00  0.1538462E+00  0.4166667E-02
   1       -4.4082
   2        0.7378
   3        1.3322
   4        1.3323
   5        1.6265
   6        2.0229
   7       24.1040
   8       24.1041
   9       24.5158
  10       26.2085
  11       30.0645
  12       36.7225
 
  0.1666667E+00  0.0000000E+00  0.1666667E+00  0.4166667E-02
   1       -4.2206
   2        0.6876
   3        1.3771
   4        1.3772
   5        1.5843
   6        2.0418
   7       23.6463
   8       23.6464
   9       24.2912
  10       25.8411
  11       29.2721
  12       37.3656
 
  0.1794872E+00  0.0000000E+00  0.1794872E+00  0.4166667E-02
   1       -4.0206
   2        0.6352
   3        1.4254
   4        1.4255
   5        1.5458
   6        2.0617
   7       23.2003
   8       23.2004
   9       24.0756
  10       25.4524
  11       28.5321
  12       38.0318
 
  0.1923077E+00  0.0000000E+00  0.1923077E+00  0.4166667E-02
   1       -3.8094
   2        0.5810
   3        1.4766
   4        1.4766
   5        1.5090
   6        2.0823
   7       22.7643
   8       22.7644
   9       23.8694
  10       25.0195
  11       27.8551
  12       38.7199
 
  0.2051282E+00  0.0000000E+00  0.2051282E+00  0.4166667E-02
   1       -3.5882
   2        0.5254
   3        1.4753
   4        1.5303
   5        1.5304
   6        2.1036
   7       22.3390
   8       22.3391
   9       23.6728
  10       24.5269
  11       27.2585
  12       39.4293
 
  0.2179487E+00  0.0000000E+00  0.2179487E+00  0.4166667E-02
   1       -3.3582
   2        0.4688
   3        1.4461
   4        1.5865
   5        1.5865
   6        2.1255
   7       21.9249
   8       21.9250
   9       23.4860
  10       23.9659
  11       26.7526
  12       40.1603
 
  0.2307692E+00  0.0000000E+00  0.2307692E+00  0.4166667E-02
   1       -3.1213
   2        0.4114
   3        1.4256
   4        1.6458
   5        1.6458
   6        2.1479
   7       21.5257
   8       21.5258
   9       23.3091
  10       23.3579
  11       26.3345
  12       40.7167
 
  0.2435897E+00  0.0000000E+00  0.2435897E+00  0.4166667E-02
   1       -2.8799
   2        0.3538
   3        1.4118
   4        1.7058
   5        1.7058
   6        2.1704
   7       21.1354
   8       21.1355
   9       22.6798
  10       23.1421
  11       25.9916
  12       41.2171
 
  0.2564103E+00  0.0000000E+00  0.2564103E+00  0.4166667E-02
   1       -2.6368
   2        0.2963
   3        1.4100
   4        1.7674
   5        1.7675
   6        2.1930
   7       20.7582
   8       20.7583
   9       21.9673
  10       22.9849
  11       25.7076
  12       41.7174
 
  0.2692308E+00  0.0000000E+00  0.2692308E+00  0.4166667E-02
   1       -2.3955
   2        0.2392
   3        1.4239
   4        1.8303
   5        1.8304
   6        2.2156
   7       20.3946
   8       20.3948
   9       21.2346
  10       22.8374
  11       25.4687
  12       42.2186
 
  0.2820513E+00  0.0000000E+00  0.2820513E+00  0.4166667E-02
   1       -2.1603
   2        0.1830
   3        1.4579
   4        1.8941
   5        1.8941
   6        2.2381
   7       20.0453
   8       20.0454
   9       20.4925
  10       22.6995
  11       25.2645
  12       42.7224
 
  0.2948718E+00  0.0000000E+00  0.2948718E+00  0.4166667E-02
   1       -1.9361
   2        0.1280
   3        1.5167
   4        1.9583
   5        1.9583
   6        2.2602
   7       19.7107
   8       19.7108
   9       19.7483
  10       22.5709
  11       25.0879
  12       43.2302
 
  0.3076923E+00  0.0000000E+00  0.3076923E+00  0.4166667E-02
   1       -1.7283
   2        0.0731
   3        1.6055
   4        2.0208
   5        2.0208
   6        2.2819
   7       19.0069
   8       19.3904
   9       19.3905
  10       22.4316
  11       24.9340
  12       43.7439
 
  0.3205128E+00  0.0000000E+00  0.3205128E+00  0.4166667E-02
   1       -1.5419
   2        0.0212
   3        1.7292
   4        2.0844
   5        2.0844
   6        2.3029
   7       18.2727
   8       19.0875
   9       19.0877
  10       22.3199
  11       24.7992
  12       44.2645
 
  0.3333333E+00  0.0000000E+00  0.3333333E+00  0.4166667E-02
   1       -1.3807
   2       -0.0284
   3        1.8911
   4        2.1470
   5        2.1471
   6        2.3232
   7       17.5485
   8       18.8014
   9       18.8016
  10       22.2168
  11       24.6809
  12       44.7929
 
  0.3461538E+00  0.0000000E+00  0.3461538E+00  0.4166667E-02
   1       -1.2469
   2       -0.0757
   3        2.0926
   4        2.2082
   5        2.2082
   6        2.3426
   7       16.8370
   8       18.5327
   9       18.5329
  10       22.1224
  11       24.5771
  12       45.3301
 
  0.3589744E+00  0.0000000E+00  0.3589744E+00  0.4166667E-02
   1       -1.1399
   2       -0.1200
   3        2.2716
   4        2.2716
   5        2.3330
   6        2.3620
   7       16.1453
   8       18.2850
   9       18.2851
  10       22.0417
  11       24.4897
  12       45.8847
 
  0.3717949E+00  0.0000000E+00  0.3717949E+00  0.4166667E-02
   1       -1.0577
   2       -0.1616
   3        2.3276
   4        2.3276
   5        2.3791
   6        2.6073
   7       15.4661
   8       18.0526
   9       18.0527
  10       21.9634
  11       24.4107
  12       46.2568
 
  0.3846154E+00  0.0000000E+00  0.3846154E+00  0.4166667E-02
   1       -0.9968
   2       -0.1999
   3        2.3805
   4        2.3806
   5        2.3950
   6        2.9106
   7       14.8076
   8       17.8397
   9       17.8398
  10       21.8931
  11       24.3421
  12       46.3668
 
  0.3974359E+00  0.0000000E+00  0.3974359E+00  0.4166667E-02
   1       -0.9531
   2       -0.2348
   3        2.4117
   4        2.4319
   5        2.4319
   6        3.2363
   7       14.1732
   8       17.6478
   9       17.6479
  10       21.8307
  11       24.2831
  12       46.5445
 
  0.4102564E+00  0.0000000E+00  0.4102564E+00  0.4166667E-02
   1       -0.9228
   2       -0.2661
   3        2.4246
   4        2.4768
   5        2.4768
   6        3.5764
   7       13.5676
   8       17.4759
   9       17.4760
  10       21.7760
  11       24.2329
  12       46.6690
 
  0.4230769E+00  0.0000000E+00  0.4230769E+00  0.4166667E-02
   1       -0.9025
   2       -0.2935
   3        2.4359
   4        2.5169
   5        2.5169
   6        3.9220
   7       12.9969
   8       17.3255
   9       17.3256
  10       21.7288
  11       24.1907
  12       46.8042
 
  0.4358974E+00  0.0000000E+00  0.4358974E+00  0.4166667E-02
   1       -0.8894
   2       -0.3170
   3        2.4456
   4        2.5518
   5        2.5518
   6        4.2624
   7       12.4696
   8       17.1972
   9       17.1974
  10       21.6892
  11       24.1560
  12       49.1805
 
  0.4487179E+00  0.0000000E+00  0.4487179E+00  0.4166667E-02
   1       -0.8810
   2       -0.3364
   3        2.4537
   4        2.5810
   5        2.5810
   6        4.5843
   7       12.0004
   8       17.0916
   9       17.0917
  10       21.6568
  11       24.1336
  12       50.0061
 
  0.4615385E+00  0.0000000E+00  0.4615385E+00  0.4166667E-02
   1       -0.8764
   2       -0.3516
   3        2.4600
   4        2.6042
   5        2.6042
   6        4.8704
   7       11.5980
   8       17.0089
   9       17.0090
  10       21.6318
  11       24.1123
  12       47.1082
 
  0.4743590E+00  0.0000000E+00  0.4743590E+00  0.4166667E-02
   1       -0.8739
   2       -0.3625
   3        2.4645
   4        2.6209
   5        2.6210
   6        5.1001
   7       11.2859
   8       16.9496
   9       16.9497
  10       21.6139
  11       24.0973
  12       47.1705
 
  0.4871795E+00  0.0000000E+00  0.4871795E+00  0.4166667E-02
   1       -0.8728
   2       -0.3691
   3        2.4673
   4        2.6311
   5        2.6311
   6        5.2508
   7       11.0860
   8       16.9139
   9       16.9140
  10       21.6032
  11       24.0884
  12       47.2089
 
  0.5000000E+00  0.0000000E+00  0.5000000E+00  0.4166667E-02
   1       -0.8724
   2       -0.3712
   3        2.4682
   4        2.6345
   5        2.6345
   6        5.3036
   7       11.0169
   8       16.9020
   9       16.9021
  10       21.5997
  11       24.0854
  12       47.2218
 
  0.5000000E+00  0.0000000E+00  0.5000000E+00  0.4166667E-02
   1       -0.8724
   2       -0.3712
   3        2.4682
   4        2.6345
   5        2.6345
   6        5.3036
   7       11.0169
   8       16.9020
   9       16.9021
  10       21.5997
  11       24.0854
  12       47.2218
 
  0.5000000E+00  0.6410256E-02  0.5064103E+00  0.4166667E-02
   1       -0.8715
   2       -0.3707
   3        2.4675
   4        2.6302
   5        2.6345
   6        5.3096
   7       11.0176
   8       16.8872
   9       16.8929
  10       21.6170
  11       24.0990
  12       47.1983
 
  0.5000000E+00  0.1282051E-01  0.5128205E+00  0.4166667E-02
   1       -0.8686
   2       -0.3690
   3        2.4653
   4        2.6176
   5        2.6345
   6        5.3277
   7       11.0197
   8       16.8436
   9       16.8655
  10       21.6684
  11       24.1397
  12       47.1266
 
  0.5000000E+00  0.1923077E-01  0.5192308E+00  0.4166667E-02
   1       -0.8637
   2       -0.3662
   3        2.4617
   4        2.5969
   5        2.6345
   6        5.3573
   7       11.0233
   8       16.7730
   9       16.8206
  10       21.7522
  11       24.2068
  12       47.0045
 
  0.5000000E+00  0.2564103E-01  0.5256410E+00  0.4166667E-02
   1       -0.8570
   2       -0.3623
   3        2.4567
   4        2.5686
   5        2.6345
   6        5.3981
   7       11.0282
   8       16.6779
   9       16.7593
  10       21.8655
  11       24.2992
  12       46.8297
 
  0.5000000E+00  0.3205128E-01  0.5320513E+00  0.4166667E-02
   1       -0.8483
   2       -0.3573
   3        2.4503
   4        2.5335
   5        2.6345
   6        5.4493
   7       11.0346
   8       16.5615
   9       16.6827
  10       22.0055
  11       24.4156
  12       46.6021
 
  0.5000000E+00  0.3846154E-01  0.5384615E+00  0.4166667E-02
   1       -0.8378
   2       -0.3511
   3        2.4424
   4        2.4922
   5        2.6346
   6        5.5102
   7       11.0424
   8       16.4269
   9       16.5925
  10       22.1690
  11       24.5545
  12       46.3250
 
  0.5000000E+00  0.4487179E-01  0.5448718E+00  0.4166667E-02
   1       -0.8255
   2       -0.3439
   3        2.4332
   4        2.4456
   5        2.6346
   6        5.5800
   7       11.0517
   8       16.2771
   9       16.4902
  10       22.3528
  11       24.7144
  12       46.0046
 
  0.5000000E+00  0.5128205E-01  0.5512821E+00  0.4166667E-02
   1       -0.8113
   2       -0.3355
   3        2.3944
   4        2.4227
   5        2.6346
   6        5.6580
   7       11.0624
   8       16.1148
   9       16.3774
  10       22.5544
  11       24.8934
  12       45.6488
 
  0.5000000E+00  0.5769231E-01  0.5576923E+00  0.4166667E-02
   1       -0.7954
   2       -0.3259
   3        2.3393
   4        2.4107
   5        2.6346
   6        5.7434
   7       11.0747
   8       15.9425
   9       16.2558
  10       22.7713
  11       25.0901
  12       45.2655
 
  0.5000000E+00  0.6410256E-01  0.5641026E+00  0.4166667E-02
   1       -0.7779
   2       -0.3153
   3        2.2810
   4        2.3975
   5        2.6347
   6        5.8356
   7       11.0885
   8       15.7620
   9       16.1267
  10       23.0016
  11       25.3029
  12       44.8616
 
  0.5000000E+00  0.7051282E-01  0.5705128E+00  0.4166667E-02
   1       -0.7587
   2       -0.3034
   3        2.2201
   4        2.3830
   5        2.6347
   6        5.9340
   7       11.1039
   8       15.5750
   9       15.9916
  10       23.2436
  11       25.5303
  12       44.4426
 
  0.5000000E+00  0.7692308E-01  0.5769231E+00  0.4166667E-02
   1       -0.7380
   2       -0.2905
   3        2.1552
   4        2.3663
   5        2.6347
   6        6.0372
   7       11.1209
   8       15.3830
   9       15.8516
  10       23.4959
  11       25.7710
  12       44.0079
 
  0.5000000E+00  0.8333333E-01  0.5833333E+00  0.4166667E-02
   1       -0.7157
   2       -0.2764
   3        2.0905
   4        2.3493
   5        2.6348
   6        6.1462
   7       11.1395
   8       15.1870
   9       15.7081
  10       23.7575
  11       26.0237
  12       43.5700
 
  0.5000000E+00  0.8974359E-01  0.5897436E+00  0.4166667E-02
   1       -0.6921
   2       -0.2611
   3        2.0246
   4        2.3312
   5        2.6348
   6        6.2600
   7       11.1598
   8       14.9881
   9       15.5620
  10       24.0273
  11       26.2875
  12       43.1270
 
  0.5000000E+00  0.9615385E-01  0.5961538E+00  0.4166667E-02
   1       -0.6672
   2       -0.2447
   3        1.9579
   4        2.3120
   5        2.6349
   6        6.3780
   7       11.1819
   8       14.7868
   9       15.4142
  10       24.3047
  11       26.5613
  12       42.6808
 
  0.5000000E+00  0.1025641E+00  0.6025641E+00  0.4166667E-02
   1       -0.6411
   2       -0.2271
   3        1.8906
   4        2.2918
   5        2.6349
   6        6.5002
   7       11.2057
   8       14.5840
   9       15.2655
  10       24.5890
  11       26.8442
  12       42.2328
 
  0.5000000E+00  0.1089744E+00  0.6089744E+00  0.4166667E-02
   1       -0.6139
   2       -0.2083
   3        1.8230
   4        2.2706
   5        2.6350
   6        6.6261
   7       11.2313
   8       14.3800
   9       15.1166
  10       24.8797
  11       27.1353
  12       41.7841
 
  0.5000000E+00  0.1153846E+00  0.6153846E+00  0.4166667E-02
   1       -0.5860
   2       -0.1885
   3        1.7555
   4        2.2465
   5        2.6350
   6        6.7555
   7       11.2573
   8       14.1750
   9       14.9679
  10       25.1733
  11       27.4297
  12       41.3355
 
  0.5000000E+00  0.1217949E+00  0.6217949E+00  0.4166667E-02
   1       -0.5570
   2       -0.1673
   3        1.6880
   4        2.2235
   5        2.6351
   6        6.8883
   7       11.2867
   8       13.9701
   9       14.8202
  10       25.4754
  11       27.7348
  12       40.8877
 
  0.5000000E+00  0.1282051E+00  0.6282051E+00  0.4166667E-02
   1       -0.5274
   2       -0.1450
   3        1.6209
   4        2.1999
   5        2.6351
   6        7.0242
   7       11.3181
   8       13.7651
   9       14.6738
  10       25.7829
  11       28.0459
  12       40.4412
 
  0.5000000E+00  0.1346154E+00  0.6346154E+00  0.4166667E-02
   1       -0.4972
   2       -0.1215
   3        1.5542
   4        2.1757
   5        2.6352
   6        7.1632
   7       11.3515
   8       13.5605
   9       14.5292
  10       26.0954
  11       28.3624
  12       39.9963
 
  0.5000000E+00  0.1410256E+00  0.6410256E+00  0.4166667E-02
   1       -0.4667
   2       -0.0967
   3        1.4881
   4        2.1511
   5        2.6353
   6        7.3050
   7       11.3871
   8       13.3563
   9       14.3868
  10       26.4127
  11       28.6836
  12       39.5535
 
  0.5000000E+00  0.1474359E+00  0.6474359E+00  0.4166667E-02
   1       -0.4359
   2       -0.0696
   3        1.4235
   4        2.1262
   5        2.6366
   6        7.4505
   7       11.4255
   8       13.1580
   9       14.2468
  10       26.7550
  11       29.0092
  12       39.1262
 
  0.5000000E+00  0.1538462E+00  0.6538462E+00  0.4166667E-02
   1       -0.4053
   2       -0.0425
   3        1.3588
   4        2.1013
   5        2.6366
   6        7.5977
   7       11.4653
   8       12.9551
   9       14.1095
  10       27.0811
  11       29.3377
  12       38.6880
 
  0.5000000E+00  0.1602564E+00  0.6602564E+00  0.4166667E-02
   1       -0.3749
   2       -0.0141
   3        1.2950
   4        2.0763
   5        2.6366
   6        7.7475
   7       11.5074
   8       12.7531
   9       13.9750
  10       27.4116
  11       29.6686
  12       38.2525
 
  0.5000000E+00  0.1666667E+00  0.6666667E+00  0.4166667E-02
   1       -0.3449
   2        0.0154
   3        1.2321
   4        2.0516
   5        2.6366
   6        7.8997
   7       11.5518
   8       12.5522
   9       13.8436
  10       27.7465
  11       30.0010
  12       37.8199
 
  0.5000000E+00  0.1730769E+00  0.6730769E+00  0.4166667E-02
   1       -0.3154
   2        0.0472
   3        1.1705
   4        2.0294
   5        2.6367
   6        8.0548
   7       11.6004
   8       12.3565
   9       13.7156
  10       28.0985
  11       30.3369
  12       37.3962
 
  0.5000000E+00  0.1794872E+00  0.6794872E+00  0.4166667E-02
   1       -0.2871
   2        0.0792
   3        1.1097
   4        2.0057
   5        2.6367
   6        8.2118
   7       11.6493
   8       12.1578
   9       13.5911
  10       28.4412
  11       30.6687
  12       36.9694
 
  0.5000000E+00  0.1858974E+00  0.6858974E+00  0.4166667E-02
   1       -0.2600
   2        0.1125
   3        1.0499
   4        1.9829
   5        2.6367
   6        8.3710
   7       11.7007
   8       11.9604
   9       13.4702
  10       28.7881
  11       30.9981
  12       36.5458
 
  0.5000000E+00  0.1923077E+00  0.6923077E+00  0.4166667E-02
   1       -0.2343
   2        0.1471
   3        0.9913
   4        1.9612
   5        2.6367
   6        8.5324
   7       11.7544
   8       11.7644
   9       13.3532
  10       29.1389
  11       31.3231
  12       36.1255
 
  0.5000000E+00  0.1987179E+00  0.6987179E+00  0.4166667E-02
   1       -0.2109
   2        0.1828
   3        0.9320
   4        1.9408
   5        2.6361
   6        8.6921
   7       11.5695
   8       11.8063
   9       13.2390
  10       29.4919
  11       31.6364
  12       35.6830
 
  0.5000000E+00  0.2051282E+00  0.7051282E+00  0.4166667E-02
   1       -0.1890
   2        0.2200
   3        0.8756
   4        1.9222
   5        2.6361
   6        8.8576
   7       11.3765
   8       11.8643
   9       13.1303
  10       29.8507
  11       31.9438
  12       35.2690
 
  0.5000000E+00  0.2115385E+00  0.7115385E+00  0.4166667E-02
   1       -0.1694
   2        0.2584
   3        0.8205
   4        1.9054
   5        2.6361
   6        9.0252
   7       11.1851
   8       11.9242
   9       13.0263
  10       30.2133
  11       32.2364
  12       34.8584
 
  0.5000000E+00  0.2179487E+00  0.7179487E+00  0.4166667E-02
   1       -0.1523
   2        0.2981
   3        0.7666
   4        1.8907
   5        2.6360
   6        9.1948
   7       10.9953
   8       11.9854
   9       12.9275
  10       30.5799
  11       32.5085
  12       34.4513
 
  0.5000000E+00  0.2243590E+00  0.7243590E+00  0.4166667E-02
   1       -0.1379
   2        0.3391
   3        0.7140
   4        1.8783
   5        2.6360
   6        9.3664
   7       10.8072
   8       12.0471
   9       12.8350
  10       30.9503
  11       32.7526
  12       34.0477
 
  0.5000000E+00  0.2307692E+00  0.7307692E+00  0.4166667E-02
   1       -0.1265
   2        0.3815
   3        0.6627
   4        1.8685
   5        2.6360
   6        9.5399
   7       10.6208
   8       12.1074
   9       12.7508
  10       31.3244
  11       32.9596
  12       33.6478
 
  0.5000000E+00  0.2371795E+00  0.7371795E+00  0.4166667E-02
   1       -0.1182
   2        0.4251
   3        0.6126
   4        1.8613
   5        2.6360
   6        9.7154
   7       10.4361
   8       12.1624
   9       12.6786
  10       31.7024
  11       33.1190
  12       33.2514
 
  0.5000000E+00  0.2435897E+00  0.7435897E+00  0.4166667E-02
   1       -0.1132
   2        0.4700
   3        0.5638
   4        1.8570
   5        2.6360
   6        9.8928
   7       10.2532
   8       12.2043
   9       12.6263
  10       32.0841
  11       32.8586
  12       33.2200
 
  0.5000000E+00  0.2500000E+00  0.7500000E+00  0.4166667E-02
   1       -0.1115
   2        0.5162
   3        0.5162
   4        1.8555
   5        2.6360
   6       10.0719
   7       10.0722
   8       12.2208
   9       12.6064
  10       32.4694
  11       32.4696
  12       33.2548
 
  0.5000000E+00  0.2500000E+00  0.7500000E+00  0.4166667E-02
   1       -0.1115
   2        0.5162
   3        0.5162
   4        1.8555
   5        2.6360
   6       10.0719
   7       10.0722
   8       12.2208
   9       12.6064
  10       32.4694
  11       32.4696
  12       33.2548
 
  0.5000000E+00  0.2564103E+00  0.7435897E+00  0.4166667E-02
   1       -0.1100
   2        0.5134
   3        0.5175
   4        1.8556
   5        2.6342
   6       10.0327
   7       10.0512
   8       12.2652
   9       12.6384
  10       32.3467
  11       32.4654
  12       33.3837
 
  0.5000000E+00  0.2628205E+00  0.7371795E+00  0.4166667E-02
   1       -0.1056
   2        0.5050
   3        0.5213
   4        1.8557
   5        2.6287
   6        9.9227
   7        9.9919
   8       12.3897
   9       12.7314
  10       32.0920
  11       32.4527
  12       33.6572
 
  0.5000000E+00  0.2692308E+00  0.7307692E+00  0.4166667E-02
   1       -0.0983
   2        0.4911
   3        0.5276
   4        1.8557
   5        2.6198
   6        9.7608
   7        9.9019
   8       12.5758
   9       12.8774
  10       31.8018
  11       32.4318
  12       33.9787
 
  0.5000000E+00  0.2756410E+00  0.7243590E+00  0.4166667E-02
   1       -0.0881
   2        0.4718
   3        0.5364
   4        1.8554
   5        2.6078
   6        9.5652
   7        9.7904
   8       12.8053
   9       13.0672
  10       31.5033
  11       32.4033
  12       34.3212
 
  0.5000000E+00  0.2820513E+00  0.7179487E+00  0.4166667E-02
   1       -0.0747
   2        0.4475
   3        0.5481
   4        1.8542
   5        2.5935
   6        9.3519
   7        9.6660
   8       13.0658
   9       13.2922
  10       31.2070
  11       32.3717
  12       34.6870
 
  0.5000000E+00  0.2884615E+00  0.7115385E+00  0.4166667E-02
   1       -0.0586
   2        0.4181
   3        0.5617
   4        1.8518
   5        2.5766
   6        9.1233
   7        9.5343
   8       13.3473
   9       13.5457
  10       30.9113
  11       32.3298
  12       35.0518
 
  0.5000000E+00  0.2948718E+00  0.7051282E+00  0.4166667E-02
   1       -0.0397
   2        0.3841
   3        0.5777
   4        1.8477
   5        2.5582
   6        8.8879
   7        9.4005
   8       13.6453
   9       13.8226
  10       30.6205
  11       32.2822
  12       35.4243
 
  0.5000000E+00  0.3012821E+00  0.6987179E+00  0.4166667E-02
   1       -0.0176
   2        0.3462
   3        0.5961
   4        1.8412
   5        2.5390
   6        8.6511
   7        9.2699
   8       13.9573
   9       14.1193
  10       30.3356
  11       32.2396
  12       35.8110
 
  0.5000000E+00  0.3076923E+00  0.6923077E+00  0.4166667E-02
   1        0.0071
   2        0.3037
   3        0.6165
   4        1.8306
   5        2.5180
   6        8.4110
   7        9.1405
   8       14.2783
   9       14.4316
  10       30.0558
  11       32.1813
  12       36.1972
 
  0.5000000E+00  0.3141026E+00  0.6858974E+00  0.4166667E-02
   1        0.0346
   2        0.2575
   3        0.6392
   4        1.8175
   5        2.4995
   6        8.1713
   7        9.0162
   8       14.6095
   9       14.7597
  10       29.7835
  11       32.1208
  12       36.5897
 
  0.5000000E+00  0.3205128E+00  0.6794872E+00  0.4166667E-02
   1        0.0649
   2        0.2079
   3        0.6639
   4        1.8005
   5        2.4826
   6        7.9328
   7        8.8979
   8       14.9490
   9       15.1009
  10       29.5180
  11       32.0575
  12       36.9881
 
  0.5000000E+00  0.3269231E+00  0.6730769E+00  0.4166667E-02
   1        0.0971
   2        0.1550
   3        0.6896
   4        1.7788
   5        2.4672
   6        7.6939
   7        8.7854
   8       15.2887
   9       15.4539
  10       29.2542
  11       31.9871
  12       37.3722
 
  0.5000000E+00  0.3333333E+00  0.6666667E+00  0.4166667E-02
   1        0.0994
   2        0.1328
   3        0.7182
   4        1.7534
   5        2.4547
   6        7.4598
   7        8.6804
   8       15.6426
   9       15.8181
  10       29.0035
  11       31.9195
  12       37.7807
 
  0.5000000E+00  0.3397436E+00  0.6602564E+00  0.4166667E-02
   1        0.0415
   2        0.1711
   3        0.7488
   4        1.7242
   5        2.4449
   6        7.2286
   7        8.5822
   8       16.0032
   9       16.1925
  10       28.7604
  11       31.8506
  12       38.1946
 
  0.5000000E+00  0.3461538E+00  0.6538462E+00  0.4166667E-02
   1       -0.0185
   2        0.2119
   3        0.7813
   4        1.6913
   5        2.4377
   6        7.0005
   7        8.4910
   8       16.3702
   9       16.5763
  10       28.5250
  11       31.7807
  12       38.6139
 
  0.5000000E+00  0.3525641E+00  0.6474359E+00  0.4166667E-02
   1       -0.0802
   2        0.2549
   3        0.8158
   4        1.6555
   5        2.4329
   6        6.7758
   7        8.4066
   8       16.7434
   9       16.9688
  10       28.2975
  11       31.7102
  12       39.0384
 
  0.5000000E+00  0.3589744E+00  0.6410256E+00  0.4166667E-02
   1       -0.1432
   2        0.3001
   3        0.8523
   4        1.6172
   5        2.4303
   6        6.5545
   7        8.3287
   8       17.1227
   9       17.3695
  10       28.0781
  11       31.6391
  12       39.4679
 
  0.5000000E+00  0.3653846E+00  0.6346154E+00  0.4166667E-02
   1       -0.2071
   2        0.3472
   3        0.8909
   4        1.5773
   5        2.4295
   6        6.3368
   7        8.2570
   8       17.5078
   9       17.7779
  10       27.8670
  11       31.5675
  12       39.9058
 
  0.5000000E+00  0.3717949E+00  0.6282051E+00  0.4166667E-02
   1       -0.2716
   2        0.3958
   3        0.9317
   4        1.5363
   5        2.4302
   6        6.1228
   7        8.1914
   8       17.8986
   9       18.1934
  10       27.6643
  11       31.4954
  12       39.4079
 
  0.5000000E+00  0.3782051E+00  0.6217949E+00  0.4166667E-02
   1       -0.3363
   2        0.4455
   3        0.9745
   4        1.4937
   5        2.4316
   6        5.9118
   7        8.1310
   8       18.2949
   9       18.6138
  10       27.4695
  11       31.4163
  12       38.7602
 
  0.5000000E+00  0.3846154E+00  0.6153846E+00  0.4166667E-02
   1       -0.4007
   2        0.4959
   3        1.0200
   4        1.4512
   5        2.4340
   6        5.7050
   7        8.0759
   8       18.6951
   9       19.0409
  10       27.2840
  11       31.3297
  12       38.1145
 
  0.5000000E+00  0.3910256E+00  0.6089744E+00  0.4166667E-02
   1       -0.4643
   2        0.5466
   3        1.0690