       N       E                     dE             d eps       ncg     rms          rms(c)
DAV:   1     0.344549829639E+01    0.34455E+01   -0.73314E+02  8732   0.297E+02    0.371E+00
DAV:   2    -0.422834768657E+01   -0.76738E+01   -0.71077E+01  6388   0.626E+01    0.350E+00
DAV:   3    -0.454139458338E+01   -0.31305E+00   -0.11296E+00  6872   0.110E+01    0.596E+00
DAV:   4    -0.423988989599E+01    0.30150E+00   -0.24624E+00  6664   0.190E+01    0.489E-01
DAV:   5    -0.423272205227E+01    0.71678E-02   -0.18806E-01  6568   0.566E+00    0.606E-01
DAV:   6    -0.422633811848E+01    0.63839E-02   -0.30141E-02  6564   0.214E+00    0.420E-02
DAV:   7    -0.422633523602E+01    0.28825E-05   -0.67077E-05  4532   0.894E-02
   1 F= -.42263352E+01 E0= -.42263352E+01  d E =-.126677E-13
