 vasp.4.6.28 25Jul05 complex 
 executed on             LinuxIFC date 2019.02.03  19:07:56
 running on    4 nodes
 distr:  one band on    1 nodes,    4 groups


--------------------------------------------------------------------------------------------------------


 INCAR:
 POTCAR:   PAW_GGA Cu 05Jan2001                   
 POTCAR:   PAW_GGA Cu 05Jan2001                   
   VRHFIN =Cu: d10 p1                                                           
   LEXCH  = 91                                                                  
   EATOM  =  1393.0707 eV,  102.3878 Ry                                         
                                                                                
   TITEL  = PAW_GGA Cu 05Jan2001                                                
   LULTRA =        F    use ultrasoft PP ?                                      
   IUNSCR =        1    unscreen: 0-lin 1-nonlin 2-no                           
   RPACOR =    2.000    partial core radius                                     
   POMASS =   63.546; ZVAL   =   11.000    mass and valenz                      
   RCORE  =    2.300    outmost cutoff radius                                   
   RWIGS  =    2.480; RWIGS  =    1.312    wigner-seitz radius (au A)           
   ENMAX  =  273.246; ENMIN  =  204.934 eV                                      
   RCLOC  =    1.712    cutoff for local pot                                    
   LCOR   =        T    correct aug charges                                     
   LPAW   =        T    paw PP                                                  
   EAUG   =  516.456                                                            
   DEXC   =    -.002                                                            
   RMAX   =    2.789    core radius for proj-oper                               
   RAUG   =    1.300    factor for augmentation sphere                          
   RDEP   =    2.302    core radius for depl-charge                             
   QCUT   =   -4.481; QGAM   =    8.963    optimization parameters              
                                                                                
   Description                                                                  
     l     E      TYP  RCUT    TYP  RCUT                                        
     2   .000     23  2.300                                                     
     2   .000     23  2.300                                                     
     0   .000     23  2.300                                                     
     0   .000     23  2.300                                                     
     1  -.200     23  2.300                                                     
     1   .000     23  2.300                                                     
     3   .000      7   .000                                                     
  local pseudopotential read in
  partial core-charges read in
  atomic valenz-charges read in
  non local Contribution for L=           2  read in
    real space projection operators read in
  non local Contribution for L=           2  read in
    real space projection operators read in
  non local Contribution for L=           0  read in
    real space projection operators read in
  non local Contribution for L=           0  read in
    real space projection operators read in
  non local Contribution for L=           1  read in
    real space projection operators read in
  non local Contribution for L=           1  read in
    real space projection operators read in
    PAW grid and wavefunctions read in
 
   number of l-projection  operators is LMAX  =           6
   number of lm-projection operators is LMMAX =          18
 
 PAW_GGA Cu 05Jan2001                   :
 energy of atom  1       EATOM=-1393.0707
 kinetic energy error for atom=    0.0395 (will be added to EATOM!!)
 
 EXHCAR: internal setup
 exchange correlation table for  LEXCH =        7
   RHO(1)=    0.500       N(1)  =     2000
   RHO(2)=  100.500       N(2)  =     4000
 
 POSCAR: Cu metal rhomboedrique                  
  positions in direct lattice
  No initial velocities read in
 


--------------------------------------------------------------------------------------------------------


 ion  position               nearest neighbor table
   1  0.000  0.000  0.000-
 
  LATTYP: Found a face centered cubic cell.
 ALAT       =     3.6200000000
  
  Lattice vectors:
  
 A1 = (   1.8100000000,   1.8100000000,   0.0000000000)
 A2 = (   0.0000000000,   1.8100000000,   1.8100000000)
 A3 = (   1.8100000000,   0.0000000000,   1.8100000000)
 Subroutine PRICEL returns:
 Original cell was already a primitive cell.
 

Analysis of symmetry for initial positions (statically):

 Routine SETGRP: Setting up the symmetry group for a 
 face centered cubic supercell.


 Subroutine GETGRP returns: Found 48 space group operations
 (whereof 48 operations were pure point group operations)
 out of a pool of 48 trial point group operations.


The static configuration has the point symmetry O_h .

Analysis of symmetry for dynamics (positions and initial velocities):

 Subroutine DYNSYM returns: Found 48 space group operations
 (whereof 48 operations were pure point group operations)
 out of a pool of 48 trial space group operations
 (whereof 48 operations were pure point group operations)
 and found also     1 'primitive' translations


The dynamic configuration has the point symmetry O_h .
 
 
 KPOINTS: Line_mode KPOINTS file                  
  interpolating k-points between supplied coordinates
  k-points in reciprocal lattice


--------------------------------------------------------------------------------------------------------




 Dimension of arrays:
   k-Points           NKPTS =    240   number of bands    NBANDS=     12
   number of dos      NEDOS =    301   number of ions     NIONS =      1
   non local maximal  LDIM  =      6   non local SUM 2l+1 LMDIM =     18
   total plane-waves  NPLWV =   1000
   max r-space proj   IRMAX =      1   max aug-charges    IRDMAX=   2357
   dimension x,y,z NGX =    10 NGY =   10 NGZ =   10
   dimension x,y,z NGXF=    18 NGYF=   18 NGZF=   18
   support grid    NGXF=    18 NGYF=   18 NGZF=   18
   ions per type =               1
 NGX,Y,Z   is equivalent  to a cutoff of   6.49,  6.49,  6.49 a.u.
 NGXF,Y,Z  is equivalent  to a cutoff of  11.69, 11.69, 11.69 a.u.


 I would recommend the setting:
   dimension x,y,z NGX =    10 NGY =   10 NGZ =   10
 SYSTEM =  unknown system                          
 POSCAR =  Cu metal rhomboedrique                  

 Startparameter for this run:
   NWRITE =      2    write-flag & timer
   PREC   = medium    medium, high low
   ISTART =      1    job   : 0-new  1-cont  2-samecut
   ICHARG =      0    charge: 1-file 2-atom 10-const
   ISPIN  =      1    spin polarized calculation?
   LNONCOLLINEAR =      F non collinear calculations
   LSORBIT =      F    spin-orbit coupling
   INIWAV =      1    electr: 0-lowe 1-rand  2-diag
   LASPH  =      F    aspherical Exc in radial PAW
   METAGGA=      F    non-selfconsistent MetaGGA calc.

 Electronic Relaxation 1
   ENCUT  =  273.2 eV  20.08 Ry    4.48 a.u.   3.45  3.45  3.45*2*pi/ulx,y,z
   ENINI  =  273.2     initial cutoff
   ENAUG  =  516.5 eV  augmentation charge cutoff
   NELM   =     60;   NELMIN=  2; NELMDL=  0     # of ELM steps 
   EDIFF  = 0.1E-03   stopping-criterion for ELM
   LREAL  =      F    real-space projection
   LCOMPAT=      F    compatible to vasp.4.4
   LREAL_COMPAT= F    compatible to vasp.4.5.1-3
   GGA_COMPAT  = T    GGA compatible to vasp.4.4-vasp.4.6
   LMAXPAW     = -100 max onsite density
   LMAXMIX     =    2 max onsite mixed and CHGCAR
   VOSKOWN=      0    Vosko Wilk Nusair interpolation
   ROPT   =    0.00000
 Ionic relaxation
   EDIFFG = 0.1E-02   stopping-criterion for IOM
   NSW    =      0    number of steps for IOM
   NBLOCK =      1;   KBLOCK =      1    inner block; outer block 
   IBRION =     -1    ionic relax: 0-MD 1-quasi-New 2-CG
   NFREE  =      0    steps in history (QN), initial steepest desc. (CG)
   ISIF   =      2    stress and relaxation
   IWAVPR =     10    prediction:  0-non 1-charg 2-wave 3-comb
   ISYM   =      2    0-nonsym 1-usesym 2-fastsym
   LCORR  =      T    Harris-Foulkes like correction to forces

   POTIM  =   0.50    time-step for ionic-motion
   TEIN   =    0.0    initial temperature
   TEBEG  =    0.0;   TEEND  =   0.0 temperature during run
   SMASS  =  -3.00    Nose mass-parameter (am)
   estimated Nose-frequenzy (Omega)   =  0.10E-29 period in steps =****** mass=  -0.150E-27a.u.
   NPACO  =    256;   APACO  = 16.0  distance and # of slots for P.C.
   PSTRESS=    0.0 pullay stress

  Mass of Ions in am
   POMASS =  63.55
  Ionic Valenz
   ZVAL   =  11.00
  Atomic Wigner-Seitz radii
   RWIGS  =  -1.00
   NELECT =      11.0000    total number of electrons
   NUPDOWN=      -1.0000    fix difference up-down

 DOS related values:
   EMIN   =  10.00;   EMAX   =-10.00  energy-range for DOS
   ISMEAR =     0;   SIGMA  =   0.01  broadening in eV -4-tet -1-fermi 0-gaus

 Electronic relaxation 2 (details)
   IALGO  =     38    algorithm
   LDIAG  =      T    sub-space diagonalisation
   IMIX   =      4    mixing-type and parameters
     AMIX     =   0.40;   BMIX     =  1.00
     AMIX_MAG =   1.60;   BMIX_MAG =  1.00
     AMIN     =   0.10
     WC   =   100.;   INIMIX=   1;  MIXPRE=   1

 Intra band minimization:
   WEIMIN = 0.0000     energy-eigenvalue tresh-hold
   EBREAK =  0.28E-05  absolut break condition
   DEPER  =   0.30     relativ break condition  

   TIME   =   0.10     timestep for ELM

  volume/ion in A,a.u.               =      11.86        80.03
  Fermi-wavevector in a.u.,eV,Ry     =   1.596555 34.681075  2.548987

 Second variation
   LSECVAR=     F    do a second variation
 
 Write flags
   LWAVE  =      T    write WAVECAR
   LCHARG =      T    write CHGCAR
   LVTOT  =      F    write LOCPOT, local potential
   LELF   =      F    write electronic localiz. function (ELF)
   LORBIT =     11    0 simple, 1 ext, 2 COOP (PROOUT)


 Dipole corrections
   IDIPOL =      0    1-x, 2-y, 3-z
   LDIPOL =      F    correct potential



--------------------------------------------------------------------------------------------------------


 Static calculation
 charge density will be updated during run
 non-spin polarized calculation
 Variant of blocked Davidson
 Davidson routine will perform the subspace rotation
 performe sub-space diagonalisation
    after iterative eigenvector-optimisation
 modified Broyden-mixing scheme, WC =      100.0
 initial mixing is a Kerker type mixing with AMIX =  0.4000 and BMIX =      1.0000
 Hartree-type preconditioning will be used
 using additional bands            6
 reciprocal scheme for non local part
 use partial core corrections
 calculate Harris-corrections to forces 
   (improved forces if not selfconsistent)
 use gradient corrections 
 use of overlap-Matrix (Vanderbilt PP)
 Gauss-broadening in eV      SIGMA  =   0.01


--------------------------------------------------------------------------------------------------------


  energy-cutoff  :      273.25
  volume of cell :       11.86
      direct lattice vectors                 reciprocal lattice vectors
     1.810000000  1.810000000  0.000000000     0.276243094  0.276243094 -0.276243094
     0.000000000  1.810000000  1.810000000    -0.276243094  0.276243094  0.276243094
     1.810000000  0.000000000  1.810000000     0.276243094 -0.276243094  0.276243094

  length of vectors
     2.559726548  2.559726548  2.559726548     0.478467074  0.478467074  0.478467074


 
 old parameters found on file WAVECAR:
  energy-cutoff  :      273.25
  volume of cell :       11.86
      direct lattice vectors                 reciprocal lattice vectors
     1.810000000  1.810000000  0.000000000     0.276243094  0.276243094 -0.276243094
     0.000000000  1.810000000  1.810000000    -0.276243094  0.276243094  0.276243094
     1.810000000  0.000000000  1.810000000     0.276243094 -0.276243094  0.276243094

  length of vectors

 
 k-points in units of 2pi/SCALE and weight: Line_mode KPOINTS file                  
   0.00000000  0.00000000  0.00000000       0.004
   0.02564103 -0.00000000  0.00000000       0.004
   0.05128205 -0.00000000  0.00000000       0.004
   0.07692308  0.00000000 -0.00000000       0.004
   0.10256410 -0.00000000  0.00000000       0.004
   0.12820513  0.00000000 -0.00000000       0.004
   0.15384615  0.00000000 -0.00000000       0.004
   0.17948718 -0.00000000  0.00000000       0.004
   0.20512821 -0.00000000  0.00000000       0.004
   0.23076923  0.00000000 -0.00000000       0.004
   0.25641026  0.00000000 -0.00000000       0.004
   0.28205128 -0.00000000  0.00000000       0.004
   0.30769231  0.00000000 -0.00000000       0.004
   0.33333333  0.00000000 -0.00000000       0.004
   0.35897436 -0.00000000  0.00000000       0.004
   0.38461538  0.00000000 -0.00000000       0.004
   0.41025641 -0.00000000  0.00000000       0.004
   0.43589744  0.00000000 -0.00000000       0.004
   0.46153846  0.00000000 -0.00000000       0.004
   0.48717949  0.00000000 -0.00000000       0.004
   0.51282051  0.00000000 -0.00000000       0.004
   0.53846154  0.00000000 -0.00000000       0.004
   0.56410256 -0.00000000  0.00000000       0.004
   0.58974359  0.00000000 -0.00000000       0.004
   0.61538462  0.00000000 -0.00000000       0.004
   0.64102564 -0.00000000  0.00000000       0.004
   0.66666667  0.00000000 -0.00000000       0.004
   0.69230769  0.00000000 -0.00000000       0.004
   0.71794872 -0.00000000  0.00000000       0.004
   0.74358974 -0.00000000  0.00000000       0.004
   0.76923077  0.00000000 -0.00000000       0.004
   0.79487179 -0.00000000  0.00000000       0.004
   0.82051282 -0.00000000  0.00000000       0.004
   0.84615385  0.00000000 -0.00000000       0.004
   0.87179487  0.00000000 -0.00000000       0.004
   0.89743590 -0.00000000  0.00000000       0.004
   0.92307692  0.00000000 -0.00000000       0.004
   0.94871795 -0.00000000  0.00000000       0.004
   0.97435897  0.00000000 -0.00000000       0.004
   1.00000000  0.00000000  0.00000000       0.004
   1.00000000  0.00000000  0.00000000       0.004
   1.00000000  0.00000000  0.01282051       0.004
   1.00000000  0.00000000  0.02564103       0.004
   1.00000000 -0.00000000  0.03846154       0.004
   1.00000000  0.00000000  0.05128205       0.004
   1.00000000 -0.00000000  0.06410256       0.004
   1.00000000  0.00000000  0.07692308       0.004
   1.00000000  0.00000000  0.08974359       0.004
   1.00000000 -0.00000000  0.10256410       0.004
   1.00000000  0.00000000  0.11538462       0.004
   1.00000000 -0.00000000  0.12820513       0.004
   1.00000000  0.00000000  0.14102564       0.004
   1.00000000  0.00000000  0.15384615       0.004
   1.00000000 -0.00000000  0.16666667       0.004
   1.00000000  0.00000000  0.17948718       0.004
   1.00000000 -0.00000000  0.19230769       0.004
   1.00000000  0.00000000  0.20512821       0.004
   1.00000000  0.00000000  0.21794872       0.004
   1.00000000 -0.00000000  0.23076923       0.004
   1.00000000 -0.00000000  0.24358974       0.004
   1.00000000  0.00000000  0.25641026       0.004
   1.00000000  0.00000000  0.26923077       0.004
   1.00000000  0.00000000  0.28205128       0.004
   1.00000000  0.00000000  0.29487179       0.004
   1.00000000 -0.00000000  0.30769231       0.004
   1.00000000 -0.00000000  0.32051282       0.004
   1.00000000  0.00000000  0.33333333       0.004
   1.00000000  0.00000000  0.34615385       0.004
   1.00000000 -0.00000000  0.35897436       0.004
   1.00000000 -0.00000000  0.37179487       0.004
   1.00000000  0.00000000  0.38461538       0.004
   1.00000000 -0.00000000  0.39743590       0.004
   1.00000000  0.00000000  0.41025641       0.004
   1.00000000  0.00000000  0.42307692       0.004
   1.00000000 -0.00000000  0.43589744       0.004
   1.00000000  0.00000000  0.44871795       0.004
   1.00000000  0.00000000  0.46153846       0.004
   1.00000000 -0.00000000  0.47435897       0.004
   1.00000000 -0.00000000  0.48717949       0.004
   1.00000000  0.00000000  0.50000000       0.004
   1.00000000  0.00000000  0.50000000       0.004
   0.98717949  0.01282051  0.50000000       0.004
   0.97435897  0.02564103  0.50000000       0.004
   0.96153846  0.03846154  0.50000000       0.004
   0.94871795  0.05128205  0.50000000       0.004
   0.93589744  0.06410256  0.50000000       0.004
   0.92307692  0.07692308  0.50000000       0.004
   0.91025641  0.08974359  0.50000000       0.004
   0.89743590  0.10256410  0.50000000       0.004
   0.88461538  0.11538462  0.50000000       0.004
   0.87179487  0.12820513  0.50000000       0.004
   0.85897436  0.14102564  0.50000000       0.004
   0.84615385  0.15384615  0.50000000       0.004
   0.83333333  0.16666667  0.50000000       0.004
   0.82051282  0.17948718  0.50000000       0.004
   0.80769231  0.19230769  0.50000000       0.004
   0.79487179  0.20512821  0.50000000       0.004
   0.78205128  0.21794872  0.50000000       0.004
   0.76923077  0.23076923  0.50000000       0.004
   0.75641026  0.24358974  0.50000000       0.004
   0.74358974  0.25641026  0.50000000       0.004
   0.73076923  0.26923077  0.50000000       0.004
   0.71794872  0.28205128  0.50000000       0.004
   0.70512821  0.29487179  0.50000000       0.004
   0.69230769  0.30769231  0.50000000       0.004
   0.67948718  0.32051282  0.50000000       0.004
   0.66666667  0.33333333  0.50000000       0.004
   0.65384615  0.34615385  0.50000000       0.004
   0.64102564  0.35897436  0.50000000       0.004
   0.62820513  0.37179487  0.50000000       0.004
   0.61538462  0.38461538  0.50000000       0.004
   0.60256410  0.39743590  0.50000000       0.004
   0.58974359  0.41025641  0.50000000       0.004
   0.57692308  0.42307692  0.50000000       0.004
   0.56410256  0.43589744  0.50000000       0.004
   0.55128205  0.44871795  0.50000000       0.004
   0.53846154  0.46153846  0.50000000       0.004
   0.52564103  0.47435897  0.50000000       0.004
   0.51282051  0.48717949  0.50000000       0.004
   0.50000000  0.50000000  0.50000000       0.004
   0.50000000  0.50000000  0.50000000       0.004
   0.48717949  0.48717949  0.48717949       0.004
   0.47435897  0.47435897  0.47435897       0.004
   0.46153846  0.46153846  0.46153846       0.004
   0.44871795  0.44871795  0.44871795       0.004
   0.43589744  0.43589744  0.43589744       0.004
   0.42307692  0.42307692  0.42307692       0.004
   0.41025641  0.41025641  0.41025641       0.004
   0.39743590  0.39743590  0.39743590       0.004
   0.38461538  0.38461538  0.38461538       0.004
   0.37179487  0.37179487  0.37179487       0.004
   0.35897436  0.35897436  0.35897436       0.004
   0.34615385  0.34615385  0.34615385       0.004
   0.33333333  0.33333333  0.33333333       0.004
   0.32051282  0.32051282  0.32051282       0.004
   0.30769231  0.30769231  0.30769231       0.004
   0.29487179  0.29487179  0.29487179       0.004
   0.28205128  0.28205128  0.28205128       0.004
   0.26923077  0.26923077  0.26923077       0.004
   0.25641026  0.25641026  0.25641026       0.004
   0.24358974  0.24358974  0.24358974       0.004
   0.23076923  0.23076923  0.23076923       0.004
   0.21794872  0.21794872  0.21794872       0.004
   0.20512821  0.20512821  0.20512821       0.004
   0.19230769  0.19230769  0.19230769       0.004
   0.17948718  0.17948718  0.17948718       0.004
   0.16666667  0.16666667  0.16666667       0.004
   0.15384615  0.15384615  0.15384615       0.004
   0.14102564  0.14102564  0.14102564       0.004
   0.12820513  0.12820513  0.12820513       0.004
   0.11538462  0.11538462  0.11538462       0.004
   0.10256410  0.10256410  0.10256410       0.004
   0.08974359  0.08974359  0.08974359       0.004
   0.07692308  0.07692308  0.07692308       0.004
   0.06410256  0.06410256  0.06410256       0.004
   0.05128205  0.05128205  0.05128205       0.004
   0.03846154  0.03846154  0.03846154       0.004
   0.02564103  0.02564103  0.02564103       0.004
   0.01282051  0.01282051  0.01282051       0.004
   0.00000000  0.00000000  0.00000000       0.004
   0.00000000  0.00000000  0.00000000       0.004
   0.01923077  0.00000000  0.01923077       0.004
   0.03846154  0.00000000  0.03846154       0.004
   0.05769231 -0.00000000  0.05769231       0.004
   0.07692308  0.00000000  0.07692308       0.004
   0.09615385  0.00000000  0.09615385       0.004
   0.11538462 -0.00000000  0.11538462       0.004
   0.13461538  0.00000000  0.13461538       0.004
   0.15384615  0.00000000  0.15384615       0.004
   0.17307692  0.00000000  0.17307692       0.004
   0.19230769  0.00000000  0.19230769       0.004
   0.21153846  0.00000000  0.21153846       0.004
   0.23076923 -0.00000000  0.23076923       0.004
   0.25000000  0.00000000  0.25000000       0.004
   0.26923077  0.00000000  0.26923077       0.004
   0.28846154 -0.00000000  0.28846154       0.004
   0.30769231  0.00000000  0.30769231       0.004
   0.32692308 -0.00000000  0.32692308       0.004
   0.34615385  0.00000000  0.34615385       0.004
   0.36538462 -0.00000000  0.36538462       0.004
   0.38461538  0.00000000  0.38461538       0.004
   0.40384615 -0.00000000  0.40384615       0.004
   0.42307692  0.00000000  0.42307692       0.004
   0.44230769 -0.00000000  0.44230769       0.004
   0.46153846 -0.00000000  0.46153846       0.004
   0.48076923 -0.00000000  0.48076923       0.004
   0.50000000  0.00000000  0.50000000       0.004
   0.51923077 -0.00000000  0.51923077       0.004
   0.53846154  0.00000000  0.53846154       0.004
   0.55769231  0.00000000  0.55769231       0.004
   0.57692308 -0.00000000  0.57692308       0.004
   0.59615385 -0.00000000  0.59615385       0.004
   0.61538462  0.00000000  0.61538462       0.004
   0.63461538  0.00000000  0.63461538       0.004
   0.65384615 -0.00000000  0.65384615       0.004
   0.67307692 -0.00000000  0.67307692       0.004
   0.69230769  0.00000000  0.69230769       0.004
   0.71153846  0.00000000  0.71153846       0.004
   0.73076923 -0.00000000  0.73076923       0.004
   0.75000000  0.00000000  0.75000000       0.004
   1.00000000  0.25000000  0.25000000       0.004
   1.00000000  0.24358974  0.24358974       0.004
   1.00000000  0.23717949  0.23717949       0.004
   1.00000000  0.23076923  0.23076923       0.004
   1.00000000  0.22435897  0.22435897       0.004
   1.00000000  0.21794872  0.21794872       0.004
   1.00000000  0.21153846  0.21153846       0.004
   1.00000000  0.20512821  0.20512821       0.004
   1.00000000  0.19871795  0.19871795       0.004
   1.00000000  0.19230769  0.19230769       0.004
   1.00000000  0.18589744  0.18589744       0.004
   1.00000000  0.17948718  0.17948718       0.004
   1.00000000  0.17307692  0.17307692       0.004
   1.00000000  0.16666667  0.16666667       0.004
   1.00000000  0.16025641  0.16025641       0.004
   1.00000000  0.15384615  0.15384615       0.004
   1.00000000  0.14743590  0.14743590       0.004
   1.00000000  0.14102564  0.14102564       0.004
   1.00000000  0.13461538  0.13461538       0.004
   1.00000000  0.12820513  0.12820513       0.004
   1.00000000  0.12179487  0.12179487       0.004
   1.00000000  0.11538462  0.11538462       0.004
   1.00000000  0.10897436  0.10897436       0.004
   1.00000000  0.10256410  0.10256410       0.004
   1.00000000  0.09615385  0.09615385       0.004
   1.00000000  0.08974359  0.08974359       0.004
   1.00000000  0.08333333  0.08333333       0.004
   1.00000000  0.07692308  0.07692308       0.004
   1.00000000  0.07051282  0.07051282       0.004
   1.00000000  0.06410256  0.06410256       0.004
   1.00000000  0.05769231  0.05769231       0.004
   1.00000000  0.05128205  0.05128205       0.004
   1.00000000  0.04487179  0.04487179       0.004
   1.00000000  0.03846154  0.03846154       0.004
   1.00000000  0.03205128  0.03205128       0.004
   1.00000000  0.02564103  0.02564103       0.004
   1.00000000  0.01923077  0.01923077       0.004
   1.00000000  0.01282051  0.01282051       0.004
   1.00000000  0.00641026  0.00641026       0.004
   1.00000000  0.00000000  0.00000000       0.004
 
 k-points in reciprocal lattice and weights: Line_mode KPOINTS file                  
   0.00000000  0.00000000  0.00000000       0.004
   0.01282051  0.00000000  0.01282051       0.004
   0.02564103  0.00000000  0.02564103       0.004
   0.03846154  0.00000000  0.03846154       0.004
   0.05128205  0.00000000  0.05128205       0.004
   0.06410256  0.00000000  0.06410256       0.004
   0.07692308  0.00000000  0.07692308       0.004
   0.08974359  0.00000000  0.08974359       0.004
   0.10256410  0.00000000  0.10256410       0.004
   0.11538462  0.00000000  0.11538462       0.004
   0.12820513  0.00000000  0.12820513       0.004
   0.14102564  0.00000000  0.14102564       0.004
   0.15384615  0.00000000  0.15384615       0.004
   0.16666667  0.00000000  0.16666667       0.004
   0.17948718  0.00000000  0.17948718       0.004
   0.19230769  0.00000000  0.19230769       0.004
   0.20512821  0.00000000  0.20512821       0.004
   0.21794872  0.00000000  0.21794872       0.004
   0.23076923  0.00000000  0.23076923       0.004
   0.24358974  0.00000000  0.24358974       0.004
   0.25641026  0.00000000  0.25641026       0.004
   0.26923077  0.00000000  0.26923077       0.004
   0.28205128  0.00000000  0.28205128       0.004
   0.29487179  0.00000000  0.29487179       0.004
   0.30769231  0.00000000  0.30769231       0.004
   0.32051282  0.00000000  0.32051282       0.004
   0.33333333  0.00000000  0.33333333       0.004
   0.34615385  0.00000000  0.34615385       0.004
   0.35897436  0.00000000  0.35897436       0.004
   0.37179487  0.00000000  0.37179487       0.004
   0.38461538  0.00000000  0.38461538       0.004
   0.39743590  0.00000000  0.39743590       0.004
   0.41025641  0.00000000  0.41025641       0.004
   0.42307692  0.00000000  0.42307692       0.004
   0.43589744  0.00000000  0.43589744       0.004
   0.44871795  0.00000000  0.44871795       0.004
   0.46153846  0.00000000  0.46153846       0.004
   0.47435897  0.00000000  0.47435897       0.004
   0.48717949  0.00000000  0.48717949       0.004
   0.50000000  0.00000000  0.50000000       0.004
   0.50000000  0.00000000  0.50000000       0.004
   0.50000000  0.00641026  0.50641026       0.004
   0.50000000  0.01282051  0.51282051       0.004
   0.50000000  0.01923077  0.51923077       0.004
   0.50000000  0.02564103  0.52564103       0.004
   0.50000000  0.03205128  0.53205128       0.004
   0.50000000  0.03846154  0.53846154       0.004
   0.50000000  0.04487179  0.54487179       0.004
   0.50000000  0.05128205  0.55128205       0.004
   0.50000000  0.05769231  0.55769231       0.004
   0.50000000  0.06410256  0.56410256       0.004
   0.50000000  0.07051282  0.57051282       0.004
   0.50000000  0.07692308  0.57692308       0.004
   0.50000000  0.08333333  0.58333333       0.004
   0.50000000  0.08974359  0.58974359       0.004
   0.50000000  0.09615385  0.59615385       0.004
   0.50000000  0.10256410  0.60256410       0.004
   0.50000000  0.10897436  0.60897436       0.004
   0.50000000  0.11538462  0.61538462       0.004
   0.50000000  0.12179487  0.62179487       0.004
   0.50000000  0.12820513  0.62820513       0.004
   0.50000000  0.13461538  0.63461538       0.004
   0.50000000  0.14102564  0.64102564       0.004
   0.50000000  0.14743590  0.64743590       0.004
   0.50000000  0.15384615  0.65384615       0.004
   0.50000000  0.16025641  0.66025641       0.004
   0.50000000  0.16666667  0.66666667       0.004
   0.50000000  0.17307692  0.67307692       0.004
   0.50000000  0.17948718  0.67948718       0.004
   0.50000000  0.18589744  0.68589744       0.004
   0.50000000  0.19230769  0.69230769       0.004
   0.50000000  0.19871795  0.69871795       0.004
   0.50000000  0.20512821  0.70512821       0.004
   0.50000000  0.21153846  0.71153846       0.004
   0.50000000  0.21794872  0.71794872       0.004
   0.50000000  0.22435897  0.72435897       0.004
   0.50000000  0.23076923  0.73076923       0.004
   0.50000000  0.23717949  0.73717949       0.004
   0.50000000  0.24358974  0.74358974       0.004
   0.50000000  0.25000000  0.75000000       0.004
   0.50000000  0.25000000  0.75000000       0.004
   0.50000000  0.25641026  0.74358974       0.004
   0.50000000  0.26282051  0.73717949       0.004
   0.50000000  0.26923077  0.73076923       0.004
   0.50000000  0.27564103  0.72435897       0.004
   0.50000000  0.28205128  0.71794872       0.004
   0.50000000  0.28846154  0.71153846       0.004
   0.50000000  0.29487179  0.70512821       0.004
   0.50000000  0.30128205  0.69871795       0.004
   0.50000000  0.30769231  0.69230769       0.004
   0.50000000  0.31410256  0.68589744       0.004
   0.50000000  0.32051282  0.67948718       0.004
   0.50000000  0.32692308  0.67307692       0.004
   0.50000000  0.33333333  0.66666667       0.004
   0.50000000  0.33974359  0.66025641       0.004
   0.50000000  0.34615385  0.65384615       0.004
   0.50000000  0.35256410  0.64743590       0.004
   0.50000000  0.35897436  0.64102564       0.004
   0.50000000  0.36538462  0.63461538       0.004
   0.50000000  0.37179487  0.62820513       0.004
   0.50000000  0.37820513  0.62179487       0.004
   0.50000000  0.38461538  0.61538462       0.004
   0.50000000  0.39102564  0.60897436       0.004
   0.50000000  0.39743590  0.60256410       0.004
   0.50000000  0.40384615  0.59615385       0.004
   0.50000000  0.41025641  0.58974359       0.004
   0.50000000  0.41666667  0.58333333       0.004
   0.50000000  0.42307692  0.57692308       0.004
   0.50000000  0.42948718  0.57051282       0.004
   0.50000000  0.43589744  0.56410256       0.004
   0.50000000  0.44230769  0.55769231       0.004
   0.50000000  0.44871795  0.55128205       0.004
   0.50000000  0.45512821  0.54487179       0.004
   0.50000000  0.46153846  0.53846154       0.004
   0.50000000  0.46794872  0.53205128       0.004
   0.50000000  0.47435897  0.52564103       0.004
   0.50000000  0.48076923  0.51923077       0.004
   0.50000000  0.48717949  0.51282051       0.004
   0.50000000  0.49358974  0.50641026       0.004
   0.50000000  0.50000000  0.50000000       0.004
   0.50000000  0.50000000  0.50000000       0.004
   0.48717949  0.48717949  0.48717949       0.004
   0.47435897  0.47435897  0.47435897       0.004
   0.46153846  0.46153846  0.46153846       0.004
   0.44871795  0.44871795  0.44871795       0.004
   0.43589744  0.43589744  0.43589744       0.004
   0.42307692  0.42307692  0.42307692       0.004
   0.41025641  0.41025641  0.41025641       0.004
   0.39743590  0.39743590  0.39743590       0.004
   0.38461538  0.38461538  0.38461538       0.004
   0.37179487  0.37179487  0.37179487       0.004
   0.35897436  0.35897436  0.35897436       0.004
   0.34615385  0.34615385  0.34615385       0.004
   0.33333333  0.33333333  0.33333333       0.004
   0.32051282  0.32051282  0.32051282       0.004
   0.30769231  0.30769231  0.30769231       0.004
   0.29487179  0.29487179  0.29487179       0.004
   0.28205128  0.28205128  0.28205128       0.004
   0.26923077  0.26923077  0.26923077       0.004
   0.25641026  0.25641026  0.25641026       0.004
   0.24358974  0.24358974  0.24358974       0.004
   0.23076923  0.23076923  0.23076923       0.004
   0.21794872  0.21794872  0.21794872       0.004
   0.20512821  0.20512821  0.20512821       0.004
   0.19230769  0.19230769  0.19230769       0.004
   0.17948718  0.17948718  0.17948718       0.004
   0.16666667  0.16666667  0.16666667       0.004
   0.15384615  0.15384615  0.15384615       0.004
   0.14102564  0.14102564  0.14102564       0.004
   0.12820513  0.12820513  0.12820513       0.004
   0.11538462  0.11538462  0.11538462       0.004
   0.10256410  0.10256410  0.10256410       0.004
   0.08974359  0.08974359  0.08974359       0.004
   0.07692308  0.07692308  0.07692308       0.004
   0.06410256  0.06410256  0.06410256       0.004
   0.05128205  0.05128205  0.05128205       0.004
   0.03846154  0.03846154  0.03846154       0.004
   0.02564103  0.02564103  0.02564103       0.004
   0.01282051  0.01282051  0.01282051       0.004
   0.00000000  0.00000000  0.00000000       0.004
   0.00000000  0.00000000  0.00000000       0.004
   0.00961538  0.00961538  0.01923077       0.004
   0.01923077  0.01923077  0.03846154       0.004
   0.02884615  0.02884615  0.05769231       0.004
   0.03846154  0.03846154  0.07692308       0.004
   0.04807692  0.04807692  0.09615385       0.004
   0.05769231  0.05769231  0.11538462       0.004
   0.06730769  0.06730769  0.13461538       0.004
   0.07692308  0.07692308  0.15384615       0.004
   0.08653846  0.08653846  0.17307692       0.004
   0.09615385  0.09615385  0.19230769       0.004
   0.10576923  0.10576923  0.21153846       0.004
   0.11538462  0.11538462  0.23076923       0.004
   0.12500000  0.12500000  0.25000000       0.004
   0.13461538  0.13461538  0.26923077       0.004
   0.14423077  0.14423077  0.28846154       0.004
   0.15384615  0.15384615  0.30769231       0.004
   0.16346154  0.16346154  0.32692308       0.004
   0.17307692  0.17307692  0.34615385       0.004
   0.18269231  0.18269231  0.36538462       0.004
   0.19230769  0.19230769  0.38461538       0.004
   0.20192308  0.20192308  0.40384615       0.004
   0.21153846  0.21153846  0.42307692       0.004
   0.22115385  0.22115385  0.44230769       0.004
   0.23076923  0.23076923  0.46153846       0.004
   0.24038462  0.24038462  0.48076923       0.004
   0.25000000  0.25000000  0.50000000       0.004
   0.25961538  0.25961538  0.51923077       0.004
   0.26923077  0.26923077  0.53846154       0.004
   0.27884615  0.27884615  0.55769231       0.004
   0.28846154  0.28846154  0.57692308       0.004
   0.29807692  0.29807692  0.59615385       0.004
   0.30769231  0.30769231  0.61538462       0.004
   0.31730769  0.31730769  0.63461538       0.004
   0.32692308  0.32692308  0.65384615       0.004
   0.33653846  0.33653846  0.67307692       0.004
   0.34615385  0.34615385  0.69230769       0.004
   0.35576923  0.35576923  0.71153846       0.004
   0.36538462  0.36538462  0.73076923       0.004
   0.37500000  0.37500000  0.75000000       0.004
   0.62500000  0.25000000  0.62500000       0.004
   0.62179487  0.24358974  0.62179487       0.004
   0.61858974  0.23717949  0.61858974       0.004
   0.61538462  0.23076923  0.61538462       0.004
   0.61217949  0.22435897  0.61217949       0.004
   0.60897436  0.21794872  0.60897436       0.004
   0.60576923  0.21153846  0.60576923       0.004
   0.60256410  0.20512821  0.60256410       0.004
   0.59935897  0.19871795  0.59935897       0.004
   0.59615385  0.19230769  0.59615385       0.004
   0.59294872  0.18589744  0.59294872       0.004
   0.58974359  0.17948718  0.58974359       0.004
   0.58653846  0.17307692  0.58653846       0.004
   0.58333333  0.16666667  0.58333333       0.004
   0.58012821  0.16025641  0.58012821       0.004
   0.57692308  0.15384615  0.57692308       0.004
   0.57371795  0.14743590  0.57371795       0.004
   0.57051282  0.14102564  0.57051282       0.004
   0.56730769  0.13461538  0.56730769       0.004
   0.56410256  0.12820513  0.56410256       0.004
   0.56089744  0.12179487  0.56089744       0.004
   0.55769231  0.11538462  0.55769231       0.004
   0.55448718  0.10897436  0.55448718       0.004
   0.55128205  0.10256410  0.55128205       0.004
   0.54807692  0.09615385  0.54807692       0.004
   0.54487179  0.08974359  0.54487179       0.004
   0.54166667  0.08333333  0.54166667       0.004
   0.53846154  0.07692308  0.53846154       0.004
   0.53525641  0.07051282  0.53525641       0.004
   0.53205128  0.06410256  0.53205128       0.004
   0.52884615  0.05769231  0.52884615       0.004
   0.52564103  0.05128205  0.52564103       0.004
   0.52243590  0.04487179  0.52243590       0.004
   0.51923077  0.03846154  0.51923077       0.004
   0.51602564  0.03205128  0.51602564       0.004
   0.51282051  0.02564103  0.51282051       0.004
   0.50961538  0.01923077  0.50961538       0.004
   0.50641026  0.01282051  0.50641026       0.004
   0.50320513  0.00641026  0.50320513       0.004
   0.50000000  0.00000000  0.50000000       0.004
 
 position of ions in fractional coordinates (direct lattice) 
   0.00000000  0.00000000  0.00000000
 
 position of ions in cartesian coordinates  (Angst):
   0.00000000  0.00000000  0.00000000
 


--------------------------------------------------------------------------------------------------------


 k-point  1 :  0.00000.00000.0000  plane waves:    113
 k-point  2 :  0.01280.00000.0128  plane waves:    117
 k-point  3 :  0.02560.00000.0256  plane waves:    125
 k-point  4 :  0.03850.00000.0385  plane waves:    125
 k-point  5 :  0.05130.00000.0513  plane waves:    125
 k-point  6 :  0.06410.00000.0641  plane waves:    125
 k-point  7 :  0.07690.00000.0769  plane waves:    125
 k-point  8 :  0.08970.00000.0897  plane waves:    125
 k-point  9 :  0.10260.00000.1026  plane waves:    125
 k-point 10 :  0.11540.00000.1154  plane waves:    125
 k-point 11 :  0.12820.00000.1282  plane waves:    125
 k-point 12 :  0.14100.00000.1410  plane waves:    125
 k-point 13 :  0.15380.00000.1538  plane waves:    125
 k-point 14 :  0.16670.00000.1667  plane waves:    129
 k-point 15 :  0.17950.00000.1795  plane waves:    129
 k-point 16 :  0.19230.00000.1923  plane waves:    129
 k-point 17 :  0.20510.00000.2051  plane waves:    129
 k-point 18 :  0.21790.00000.2179  plane waves:    129
 k-point 19 :  0.23080.00000.2308  plane waves:    125
 k-point 20 :  0.24360.00000.2436  plane waves:    125
 k-point 21 :  0.25640.00000.2564  plane waves:    125
 k-point 22 :  0.26920.00000.2692  plane waves:    125
 k-point 23 :  0.28210.00000.2821  plane waves:    125
 k-point 24 :  0.29490.00000.2949  plane waves:    125
 k-point 25 :  0.30770.00000.3077  plane waves:    129
 k-point 26 :  0.32050.00000.3205  plane waves:    129
 k-point 27 :  0.33330.00000.3333  plane waves:    129
 k-point 28 :  0.34620.00000.3462  plane waves:    129
 k-point 29 :  0.35900.00000.3590  plane waves:    121
 k-point 30 :  0.37180.00000.3718  plane waves:    121
 k-point 31 :  0.38460.00000.3846  plane waves:    121
 k-point 32 :  0.39740.00000.3974  plane waves:    117
 k-point 33 :  0.41030.00000.4103  plane waves:    117
 k-point 34 :  0.42310.00000.4231  plane waves:    117
 k-point 35 :  0.43590.00000.4359  plane waves:    117
 k-point 36 :  0.44870.00000.4487  plane waves:    116
 k-point 37 :  0.46150.00000.4615  plane waves:    116
 k-point 38 :  0.47440.00000.4744  plane waves:    116
 k-point 39 :  0.48720.00000.4872  plane waves:    116
 k-point 40 :  0.50000.00000.5000  plane waves:    116
 k-point 41 :  0.50000.00000.5000  plane waves:    116
 k-point 42 :  0.50000.00640.5064  plane waves:    116
 k-point 43 :  0.50000.01280.5128  plane waves:    116
 k-point 44 :  0.50000.01920.5192  plane waves:    116
 k-point 45 :  0.50000.02560.5256  plane waves:    116
 k-point 46 :  0.50000.03210.5321  plane waves:    116
 k-point 47 :  0.50000.03850.5385  plane waves:    116
 k-point 48 :  0.50000.04490.5449  plane waves:    116
 k-point 49 :  0.50000.05130.5513  plane waves:    116
 k-point 50 :  0.50000.05770.5577  plane waves:    116
 k-point 51 :  0.50000.06410.5641  plane waves:    116
 k-point 52 :  0.50000.07050.5705  plane waves:    116
 k-point 53 :  0.50000.07690.5769  plane waves:    118
 k-point 54 :  0.50000.08330.5833  plane waves:    118
 k-point 55 :  0.50000.08970.5897  plane waves:    118
 k-point 56 :  0.50000.09620.5962  plane waves:    118
 k-point 57 :  0.50000.10260.6026  plane waves:    118
 k-point 58 :  0.50000.10900.6090  plane waves:    118
 k-point 59 :  0.50000.11540.6154  plane waves:    120
 k-point 60 :  0.50000.12180.6218  plane waves:    120
 k-point 61 :  0.50000.12820.6282  plane waves:    120
 k-point 62 :  0.50000.13460.6346  plane waves:    120
 k-point 63 :  0.50000.14100.6410  plane waves:    120
 k-point 64 :  0.50000.14740.6474  plane waves:    116
 k-point 65 :  0.50000.15380.6538  plane waves:    116
 k-point 66 :  0.50000.16030.6603  plane waves:    116
 k-point 67 :  0.50000.16670.6667  plane waves:    116
 k-point 68 :  0.50000.17310.6731  plane waves:    112
 k-point 69 :  0.50000.17950.6795  plane waves:    112
 k-point 70 :  0.50000.18590.6859  plane waves:    112
 k-point 71 :  0.50000.19230.6923  plane waves:    112
 k-point 72 :  0.50000.19870.6987  plane waves:    116
 k-point 73 :  0.50000.20510.7051  plane waves:    116
 k-point 74 :  0.50000.21150.7115  plane waves:    116
 k-point 75 :  0.50000.21790.7179  plane waves:    116
 k-point 76 :  0.50000.22440.7244  plane waves:    116
 k-point 77 :  0.50000.23080.7308  plane waves:    116
 k-point 78 :  0.50000.23720.7372  plane waves:    116
 k-point 79 :  0.50000.24360.7436  plane waves:    116
 k-point 80 :  0.50000.25000.7500  plane waves:    116
 k-point 81 :  0.50000.25000.7500  plane waves:    116
 k-point 82 :  0.50000.25640.7436  plane waves:    116
 k-point 83 :  0.50000.26280.7372  plane waves:    116
 k-point 84 :  0.50000.26920.7308  plane waves:    116
 k-point 85 :  0.50000.27560.7244  plane waves:    116
 k-point 86 :  0.50000.28210.7179  plane waves:    114
 k-point 87 :  0.50000.28850.7115  plane waves:    114
 k-point 88 :  0.50000.29490.7051  plane waves:    114
 k-point 89 :  0.50000.30130.6987  plane waves:    112
 k-point 90 :  0.50000.30770.6923  plane waves:    114
 k-point 91 :  0.50000.31410.6859  plane waves:    114
 k-point 92 :  0.50000.32050.6795  plane waves:    114
 k-point 93 :  0.50000.32690.6731  plane waves:    118
 k-point 94 :  0.50000.33330.6667  plane waves:    118
 k-point 95 :  0.50000.33970.6603  plane waves:    118
 k-point 96 :  0.50000.34620.6538  plane waves:    118
 k-point 97 :  0.50000.35260.6474  plane waves:    118
 k-point 98 :  0.50000.35900.6410  plane waves:    118
 k-point 99 :  0.50000.36540.6346  plane waves:    118
 k-point ** :  0.50000.37180.6282  plane waves:    118
 k-point ** :  0.50000.37820.6218  plane waves:    120
 k-point ** :  0.50000.38460.6154  plane waves:    122
 k-point ** :  0.50000.39100.6090  plane waves:    122
 k-point ** :  0.50000.39740.6026  plane waves:    122
 k-point ** :  0.50000.40380.5962  plane waves:    122
 k-point ** :  0.50000.41030.5897  plane waves:    122
 k-point ** :  0.50000.41670.5833  plane waves:    122
 k-point ** :  0.50000.42310.5769  plane waves:    122
 k-point ** :  0.50000.42950.5705  plane waves:    122
 k-point ** :  0.50000.43590.5641  plane waves:    122
 k-point ** :  0.50000.44230.5577  plane waves:    122
 k-point ** :  0.50000.44870.5513  plane waves:    122
 k-point ** :  0.50000.45510.5449  plane waves:    122
 k-point ** :  0.50000.46150.5385  plane waves:    120
 k-point ** :  0.50000.46790.5321  plane waves:    120
 k-point ** :  0.50000.47440.5256  plane waves:    120
 k-point ** :  0.50000.48080.5192  plane waves:    120
 k-point ** :  0.50000.48720.5128  plane waves:    120
 k-point ** :  0.50000.49360.5064  plane waves:    120
 k-point ** :  0.50000.50000.5000  plane waves:    120
 k-point ** :  0.50000.50000.5000  plane waves:    120
 k-point ** :  0.48720.48720.4872  plane waves:    120
 k-point ** :  0.47440.47440.4744  plane waves:    120
 k-point ** :  0.46150.46150.4615  plane waves:    120
 k-point ** :  0.44870.44870.4487  plane waves:    120
 k-point ** :  0.43590.43590.4359  plane waves:    120
 k-point ** :  0.42310.42310.4231  plane waves:    123
 k-point ** :  0.41030.41030.4103  plane waves:    123
 k-point ** :  0.39740.39740.3974  plane waves:    123
 k-point ** :  0.38460.38460.3846  plane waves:    123
 k-point ** :  0.37180.37180.3718  plane waves:    123
 k-point ** :  0.35900.35900.3590  plane waves:    123
 k-point ** :  0.34620.34620.3462  plane waves:    117
 k-point ** :  0.33330.33330.3333  plane waves:    117
 k-point ** :  0.32050.32050.3205  plane waves:    120
 k-point ** :  0.30770.30770.3077  plane waves:    120
 k-point ** :  0.29490.29490.2949  plane waves:    126
 k-point ** :  0.28210.28210.2821  plane waves:    126
 k-point ** :  0.26920.26920.2692  plane waves:    126
 k-point ** :  0.25640.25640.2564  plane waves:    126
 k-point ** :  0.24360.24360.2436  plane waves:    126
 k-point ** :  0.23080.23080.2308  plane waves:    123
 k-point ** :  0.21790.21790.2179  plane waves:    123
 k-point ** :  0.20510.20510.2051  plane waves:    123
 k-point ** :  0.19230.19230.1923  plane waves:    123
 k-point ** :  0.17950.17950.1795  plane waves:    122
 k-point ** :  0.16670.16670.1667  plane waves:    122
 k-point ** :  0.15380.15380.1538  plane waves:    122
 k-point ** :  0.14100.14100.1410  plane waves:    122
 k-point ** :  0.12820.12820.1282  plane waves:    122
 k-point ** :  0.11540.11540.1154  plane waves:    122
 k-point ** :  0.10260.10260.1026  plane waves:    122
 k-point ** :  0.08970.08970.0897  plane waves:    122
 k-point ** :  0.07690.07690.0769  plane waves:    122
 k-point ** :  0.06410.06410.0641  plane waves:    122
 k-point ** :  0.05130.05130.0513  plane waves:    122
 k-point ** :  0.03850.03850.0385  plane waves:    122
 k-point ** :  0.02560.02560.0256  plane waves:    122
 k-point ** :  0.01280.01280.0128  plane waves:    116
 k-point ** :  0.00000.00000.0000  plane waves:    113
 k-point ** :  0.00000.00000.0000  plane waves:    113
 k-point ** :  0.00960.00960.0192  plane waves:    117
 k-point ** :  0.01920.01920.0385  plane waves:    119
 k-point ** :  0.02880.02880.0577  plane waves:    123
 k-point ** :  0.03850.03850.0769  plane waves:    123
 k-point ** :  0.04810.04810.0962  plane waves:    123
 k-point ** :  0.05770.05770.1154  plane waves:    123
 k-point ** :  0.06730.06730.1346  plane waves:    123
 k-point ** :  0.07690.07690.1538  plane waves:    123
 k-point ** :  0.08650.08650.1731  plane waves:    123
 k-point ** :  0.09620.09620.1923  plane waves:    123
 k-point ** :  0.10580.10580.2115  plane waves:    123
 k-point ** :  0.11540.11540.2308  plane waves:    123
 k-point ** :  0.12500.12500.2500  plane waves:    123
 k-point ** :  0.13460.13460.2692  plane waves:    123
 k-point ** :  0.14420.14420.2885  plane waves:    129
 k-point ** :  0.15380.15380.3077  plane waves:    127
 k-point ** :  0.16350.16350.3269  plane waves:    127
 k-point ** :  0.17310.17310.3462  plane waves:    127
 k-point ** :  0.18270.18270.3654  plane waves:    127
 k-point ** :  0.19230.19230.3846  plane waves:    125
 k-point ** :  0.20190.20190.4038  plane waves:    125
 k-point ** :  0.21150.21150.4231  plane waves:    125
 k-point ** :  0.22120.22120.4423  plane waves:    121
 k-point ** :  0.23080.23080.4615  plane waves:    125
 k-point ** :  0.24040.24040.4808  plane waves:    125
 k-point ** :  0.25000.25000.5000  plane waves:    125
 k-point ** :  0.25960.25960.5192  plane waves:    125
 k-point ** :  0.26920.26920.5385  plane waves:    121
 k-point ** :  0.27880.27880.5577  plane waves:    122
 k-point ** :  0.28850.28850.5769  plane waves:    122
 k-point ** :  0.29810.29810.5962  plane waves:    122
 k-point ** :  0.30770.30770.6154  plane waves:    122
 k-point ** :  0.31730.31730.6346  plane waves:    122
 k-point ** :  0.32690.32690.6538  plane waves:    122
 k-point ** :  0.33650.33650.6731  plane waves:    122
 k-point ** :  0.34620.34620.6923  plane waves:    122
 k-point ** :  0.35580.35580.7115  plane waves:    116
 k-point ** :  0.36540.36540.7308  plane waves:    116
 k-point ** :  0.37500.37500.7500  plane waves:    116
 k-point ** :  0.62500.25000.6250  plane waves:    116
 k-point ** :  0.62180.24360.6218  plane waves:    116
 k-point ** :  0.61860.23720.6186  plane waves:    116
 k-point ** :  0.61540.23080.6154  plane waves:    116
 k-point ** :  0.61220.22440.6122  plane waves:    120
 k-point ** :  0.60900.21790.6090  plane waves:    120
 k-point ** :  0.60580.21150.6058  plane waves:    120
 k-point ** :  0.60260.20510.6026  plane waves:    120
 k-point ** :  0.59940.19870.5994  plane waves:    120
 k-point ** :  0.59620.19230.5962  plane waves:    120
 k-point ** :  0.59290.18590.5929  plane waves:    118
 k-point ** :  0.58970.17950.5897  plane waves:    118
 k-point ** :  0.58650.17310.5865  plane waves:    118
 k-point ** :  0.58330.16670.5833  plane waves:    118
 k-point ** :  0.58010.16030.5801  plane waves:    118
 k-point ** :  0.57690.15380.5769  plane waves:    114
 k-point ** :  0.57370.14740.5737  plane waves:    114
 k-point ** :  0.57050.14100.5705  plane waves:    116
 k-point ** :  0.56730.13460.5673  plane waves:    116
 k-point ** :  0.56410.12820.5641  plane waves:    116
 k-point ** :  0.56090.12180.5609  plane waves:    116
 k-point ** :  0.55770.11540.5577  plane waves:    116
 k-point ** :  0.55450.10900.5545  plane waves:    116
 k-point ** :  0.55130.10260.5513  plane waves:    116
 k-point ** :  0.54810.09620.5481  plane waves:    116
 k-point ** :  0.54490.08970.5449  plane waves:    116
 k-point ** :  0.54170.08330.5417  plane waves:    116
 k-point ** :  0.53850.07690.5385  plane waves:    116
 k-point ** :  0.53530.07050.5353  plane waves:    116
 k-point ** :  0.53210.06410.5321  plane waves:    116
 k-point ** :  0.52880.05770.5288  plane waves:    116
 k-point ** :  0.52560.05130.5256  plane waves:    116
 k-point ** :  0.52240.04490.5224  plane waves:    116
 k-point ** :  0.51920.03850.5192  plane waves:    116
 k-point ** :  0.51600.03210.5160  plane waves:    116
 k-point ** :  0.51280.02560.5128  plane waves:    116
 k-point ** :  0.50960.01920.5096  plane waves:    116
 k-point ** :  0.50640.01280.5064  plane waves:    116
 k-point ** :  0.50320.00640.5032  plane waves:    116
 k-point ** :  0.50000.00000.5000  plane waves:    116

 maximum and minimum number of plane-waves per node :    129   112

 maximum number of plane-waves:    129
 maximal index in each direction: 
   IXMAX=  3   IYMAX=  3   IZMAX=  3
   IXMIN= -4   IYMIN= -3   IZMIN= -4

 WARNING: wrap around error must be expected set NGX to  16
 WARNING: wrap around error must be expected set NGY to  14
 WARNING: wrap around error must be expected set NGZ to  16

 parallel 3dFFT wavefunction:
    minimum data exchange during FFTs selected (reduces bandwidth)
 parallel 3dFFT charge:
    minimum data exchange during FFTs selected (reduces bandwidth)

 For storing wavefunctions    5.52 MBYTES are necessary
 For predicting wavefunctions    0.08 MBYTES are necessary
Broyden mixing: mesh for mixing (old mesh)
   NGX =  7   NGY =  7   NGZ =  7
  (NGX  = 18   NGY  = 18   NGZ  = 18)
 gives a total of    343 points
 charge density for first step will be calculated from the start-wavefunctions


--------------------------------------------------------------------------------------------------------


 Maximum index for augmentation-charges          620 (set IRDMAX)


--------------------------------------------------------------------------------------------------------


 initial charge from wavefunction
 First call to EWALD:  gamma=   0.777
 Maximum number of real-space cells 3x 3x 3
 Maximum number of reciprocal cells 3x 3x 3

    FEWALD:  VPU time    0.00: CPU time    0.00


----------------------------------------- Iteration    1(   1)  ---------------------------------------


    POTLOK:  VPU time    0.00: CPU time    0.00
    SETDIJ:  VPU time    0.00: CPU time    0.00
    EDDAV :  VPU time    0.74: CPU time    0.76
    DOS   :  VPU time    0.00: CPU time   -0.00
    CHARGE:  VPU time    0.01: CPU time    0.01
    MIXING:  VPU time    0.00: CPU time    0.00
    ------------------------------------------
      LOOP:  VPU time    0.76: CPU time    0.77

 eigenvalue-minimisations  :  8732
 total energy-change (2. order) : 0.3445498E+01  (-0.7331390E+02)
 number of electron   10.9999623 magnetization 
 augmentation part     7.2019121 magnetization 

 Broyden mixing:
  rms(total) = 0.37113E+00    rms(broyden)= 0.34551E+00
  rms(prec ) = 0.97890E+00
  weight for this iteration     100.00

 Free energy of the ion-electron system (eV)
  ---------------------------------------------------
  alpha Z        PSCENC =       107.26033312
  Ewald energy   TEWEN  =     -1103.39027675
  -1/2 Hartree   DENC   =      -285.06339115
  -V(xc)+E(xc)   XCENC  =        43.39506976
  PAW double counting   =      1021.11562088    -1181.64610224
  entropy T*S    EENTRO =        -0.00000027
  eigenvalues    EBANDS =         8.74305231
  atomic energy  EATOM  =      1393.03119264
  ---------------------------------------------------
  free energy    TOTEN  =         3.44549830 eV

  energy without entropy =        3.44549856  energy(sigma->0) =        3.44549843


--------------------------------------------------------------------------------------------------------




----------------------------------------- Iteration    1(   2)  ---------------------------------------


    POTLOK:  VPU time    0.00: CPU time    0.00
    SETDIJ:  VPU time    0.00: CPU time    0.00
    EDDAV :  VPU time    0.56: CPU time    0.56
    DOS   :  VPU time    0.00: CPU time   -0.00
    CHARGE:  VPU time    0.01: CPU time    0.01
    MIXING:  VPU time    0.00: CPU time    0.00
    ------------------------------------------
      LOOP:  VPU time    0.57: CPU time    0.57

 eigenvalue-minimisations  :  6388
 total energy-change (2. order) :-0.7673846E+01  (-0.7107670E+01)
 number of electron   10.9999614 magnetization 
 augmentation part     7.3611524 magnetization 

 Broyden mixing:
  rms(total) = 0.34960E+00    rms(broyden)= 0.34959E+00
  rms(prec ) = 0.11806E+01
  weight for this iteration     100.00

 eigenvalues of (default mixing * dielectric matrix)
  average eigenvalue GAMMA=   0.4701
  0.4701

 Free energy of the ion-electron system (eV)
  ---------------------------------------------------
  alpha Z        PSCENC =       107.26033312
  Ewald energy   TEWEN  =     -1103.39027675
  -1/2 Hartree   DENC   =      -292.40451812
  -V(xc)+E(xc)   XCENC  =        41.93893635
  PAW double counting   =      1048.49104840    -1204.79099111
  entropy T*S    EENTRO =        -0.00000000
  eigenvalues    EBANDS =         5.63592779
  atomic energy  EATOM  =      1393.03119264
  ---------------------------------------------------
  free energy    TOTEN  =        -4.22834769 eV

  energy without entropy =       -4.22834769  energy(sigma->0) =       -4.22834769


--------------------------------------------------------------------------------------------------------




----------------------------------------- Iteration    1(   3)  ---------------------------------------


    POTLOK:  VPU time    0.00: CPU time    0.00
    SETDIJ:  VPU time    0.00: CPU time    0.00
    EDDAV :  VPU time    0.60: CPU time    0.60
    DOS   :  VPU time    0.00: CPU time   -0.00
    CHARGE:  VPU time    0.01: CPU time    0.01
    MIXING:  VPU time    0.00: CPU time    0.00
    ------------------------------------------
      LOOP:  VPU time    0.61: CPU time    0.61

 eigenvalue-minimisations  :  6872
 total energy-change (2. order) :-0.3130469E+00  (-0.1129649E+00)
 number of electron   10.9999607 magnetization 
 augmentation part     7.4921725 magnetization 

 Broyden mixing:
  rms(total) = 0.59555E+00    rms(broyden)= 0.59555E+00
  rms(prec ) = 0.20949E+01
  weight for this iteration     100.00

 eigenvalues of (default mixing * dielectric matrix)
  average eigenvalue GAMMA=   1.4529
  2.3087  0.5971

 Free energy of the ion-electron system (eV)
  ---------------------------------------------------
  alpha Z        PSCENC =       107.26033312
  Ewald energy   TEWEN  =     -1103.39027675
  -1/2 Hartree   DENC   =      -282.81478599
  -V(xc)+E(xc)   XCENC  =        41.43498002
  PAW double counting   =      1019.50694397    -1177.63867933
  entropy T*S    EENTRO =        -0.00000000
  eigenvalues    EBANDS =        -1.93110226
  atomic energy  EATOM  =      1393.03119264
  ---------------------------------------------------
  free energy    TOTEN  =        -4.54139458 eV

  energy without entropy =       -4.54139458  energy(sigma->0) =       -4.54139458


--------------------------------------------------------------------------------------------------------




----------------------------------------- Iteration    1(   4)  ---------------------------------------


    POTLOK:  VPU time    0.00: CPU time    0.00
    SETDIJ:  VPU time    0.00: CPU time    0.00
    EDDAV :  VPU time    0.58: CPU time    0.58
    DOS   :  VPU time    0.00: CPU time   -0.00
    CHARGE:  VPU time    0.01: CPU time    0.01
    MIXING:  VPU time    0.00: CPU time    0.00
    ------------------------------------------
      LOOP:  VPU time    0.59: CPU time    0.59

 eigenvalue-minimisations  :  6664
 total energy-change (2. order) : 0.3015047E+00  (-0.2462422E+00)
 number of electron   10.9999624 magnetization 
 augmentation part     7.1934676 magnetization 

 Broyden mixing:
  rms(total) = 0.48887E-01    rms(broyden)= 0.48805E-01
  rms(prec ) = 0.15244E+00
  weight for this iteration     100.00

 eigenvalues of (default mixing * dielectric matrix)
  average eigenvalue GAMMA=   1.5273
  1.9336  1.9336  0.7147

 Free energy of the ion-electron system (eV)
  ---------------------------------------------------
  alpha Z        PSCENC =       107.26033312
  Ewald energy   TEWEN  =     -1103.39027675
  -1/2 Hartree   DENC   =      -308.79471788
  -V(xc)+E(xc)   XCENC  =        42.81070807
  PAW double counting   =      1103.45403743    -1251.80383625
  entropy T*S    EENTRO =        -0.00000005
  eigenvalues    EBANDS =        13.19266976
  atomic energy  EATOM  =      1393.03119264
  ---------------------------------------------------
  free energy    TOTEN  =        -4.23988990 eV

  energy without entropy =       -4.23988985  energy(sigma->0) =       -4.23988987


--------------------------------------------------------------------------------------------------------




----------------------------------------- Iteration    1(   5)  ---------------------------------------


    POTLOK:  VPU time    0.00: CPU time    0.00
    SETDIJ:  VPU time    0.00: CPU time    0.00
    EDDAV :  VPU time    0.58: CPU time    0.58
    DOS   :  VPU time    0.00: CPU time   -0.00
    CHARGE:  VPU time    0.01: CPU time    0.01
    MIXING:  VPU time    0.00: CPU time    0.00
    ------------------------------------------
      LOOP:  VPU time    0.59: CPU time    0.59

 eigenvalue-minimisations  :  6568
 total energy-change (2. order) : 0.7167844E-02  (-0.1880608E-01)
 number of electron   10.9999619 magnetization 
 augmentation part     7.2771725 magnetization 

 Broyden mixing:
  rms(total) = 0.60562E-01    rms(broyden)= 0.60561E-01
  rms(prec ) = 0.22646E+00
  weight for this iteration     100.00

 eigenvalues of (default mixing * dielectric matrix)
  average eigenvalue GAMMA=   1.3297
  2.5073  0.8774  0.8774  1.0566

 Free energy of the ion-electron system (eV)
  ---------------------------------------------------
  alpha Z        PSCENC =       107.26033312
  Ewald energy   TEWEN  =     -1103.39027675
  -1/2 Hartree   DENC   =      -307.21290136
  -V(xc)+E(xc)   XCENC  =        42.72755990
  PAW double counting   =      1102.80704962    -1248.56303022
  entropy T*S    EENTRO =        -0.00000000
  eigenvalues    EBANDS =         9.10735101
  atomic energy  EATOM  =      1393.03119264
  ---------------------------------------------------
  free energy    TOTEN  =        -4.23272205 eV

  energy without entropy =       -4.23272205  energy(sigma->0) =       -4.23272205


--------------------------------------------------------------------------------------------------------




----------------------------------------- Iteration    1(   6)  ---------------------------------------


    POTLOK:  VPU time    0.00: CPU time    0.00
    SETDIJ:  VPU time    0.00: CPU time    0.00
    EDDAV :  VPU time    0.57: CPU time    0.57
    DOS   :  VPU time    0.00: CPU time   -0.00
    CHARGE:  VPU time    0.01: CPU time    0.01
    MIXING:  VPU time    0.00: CPU time    0.00
    ------------------------------------------
      LOOP:  VPU time    0.58: CPU time    0.58

 eigenvalue-minimisations  :  6564
 total energy-change (2. order) : 0.6383934E-02  (-0.3014115E-02)
 number of electron   10.9999621 magnetization 
 augmentation part     7.2438508 magnetization 

 Broyden mixing:
  rms(total) = 0.42049E-02    rms(broyden)= 0.41954E-02
  rms(prec ) = 0.17007E-01
  weight for this iteration     100.00

 eigenvalues of (default mixing * dielectric matrix)
  average eigenvalue GAMMA=   1.6373
  2.9939  2.5297  1.0142  0.8243  0.8243

 Free energy of the ion-electron system (eV)
  ---------------------------------------------------
  alpha Z        PSCENC =       107.26033312
  Ewald energy   TEWEN  =     -1103.39027675
  -1/2 Hartree   DENC   =      -309.27479165
  -V(xc)+E(xc)   XCENC  =        42.83613835
  PAW double counting   =      1108.32060451    -1253.74573758
  entropy T*S    EENTRO =        -0.00000000
  eigenvalues    EBANDS =        10.73619924
  atomic energy  EATOM  =      1393.03119264
  ---------------------------------------------------
  free energy    TOTEN  =        -4.22633812 eV

  energy without entropy =       -4.22633812  energy(sigma->0) =       -4.22633812


--------------------------------------------------------------------------------------------------------




----------------------------------------- Iteration    1(   7)  ---------------------------------------


    POTLOK:  VPU time    0.00: CPU time    0.00
    SETDIJ:  VPU time    0.00: CPU time    0.00
    EDDAV :  VPU time    0.44: CPU time    0.45
    DOS   :  VPU time    0.00: CPU time   -0.00
    ------------------------------------------
      LOOP:  VPU time    0.45: CPU time    0.45

 eigenvalue-minimisations  :  4532
 total energy-change (2. order) : 0.2882460E-05  (-0.6707688E-05)
 number of electron   10.9999621 magnetization 
 augmentation part     7.2438508 magnetization 

 Free energy of the ion-electron system (eV)
  ---------------------------------------------------
  alpha Z        PSCENC =       107.26033312
  Ewald energy   TEWEN  =     -1103.39027675
  -1/2 Hartree   DENC   =      -309.35667837
  -V(xc)+E(xc)   XCENC  =        42.83982190
  PAW double counting   =      1108.28108756    -1253.62778977
  entropy T*S    EENTRO =        -0.00000000
  eigenvalues    EBANDS =        10.73597444
  atomic energy  EATOM  =      1393.03119264
  ---------------------------------------------------
  free energy    TOTEN  =        -4.22633524 eV

  energy without entropy =       -4.22633524  energy(sigma->0) =       -4.22633524


--------------------------------------------------------------------------------------------------------




 average (electrostatic) potential at core
  the test charge radii are     1.0053
  (the norm of the test charge is              1.0000)
       1 -39.7041
 
 
 
 E-fermi :   4.7768     XC(G=0): -12.7652     alpha+bet : -9.6029
   add alpha+bet to get absolut eigen values

 k-point   1 :       0.0000    0.0000    0.0000
  band No.  band energies     occupation 
      1      -5.5297      2.00000
      2       1.0655      2.00000
      3       1.0655      2.00000
      4       1.0655      2.00000
      5       1.9064      2.00000
      6       1.9064      2.00000
      7      26.8868      0.00000
      8      29.1586      0.00000
      9      29.1589      0.00000
     10      29.1589      0.00000
     11      31.9928      0.00000
     12      31.9931      0.00000

 k-point   2 :       0.0128    0.0000    0.0128
  band No.  band energies     occupation 
      1      -5.5217      2.00000
      2       1.0626      2.00000
      3       1.0660      2.00000
      4       1.0660      2.00000
      5       1.9028      2.00000
      6       1.9073      2.00000
      7      26.8542      0.00000
      8      29.0509      0.00000
      9      29.0510      0.00000
     10      29.1226      0.00000
     11      32.0350      0.00000
     12      32.0693      0.00000

 k-point   3 :       0.0256    0.0000    0.0256
  band No.  band energies     occupation 
      1      -5.4978      2.00000
      2       1.0524      2.00000
      3       1.0699      2.00000
      4       1.0699      2.00000
      5       1.8953      2.00000
      6       1.9079      2.00000
      7      26.7596      0.00000
      8      28.7641      0.00000
      9      28.7643      0.00000
     10      29.0172      0.00000
     11      32.1087      0.00000
     12      32.3297      0.00000

 k-point   4 :       0.0385    0.0000    0.0385
  band No.  band energies     occupation 
      1      -5.4579      2.00000
      2       1.0400      2.00000
      3       1.0793      2.00000
      4       1.0794      2.00000
      5       1.8842      2.00000
      6       1.9122      2.00000
      7      26.6120      0.00000
      8      28.3735      0.00000
      9      28.3736      0.00000
     10      28.8521      0.00000
     11      32.3401      0.00000
     12      32.7446      0.00000

 k-point   5 :       0.0513    0.0000    0.0513
  band No.  band energies     occupation 
      1      -5.4022      2.00000
      2       1.0228      2.00000
      3       1.0926      2.00000
      4       1.0926      2.00000
      5       1.8688      2.00000
      6       1.9182      2.00000
      7      26.4241      0.00000
      8      27.9293      0.00000
      9      27.9294      0.00000
     10      28.6386      0.00000
     11      32.6465      0.00000
     12      33.2232      0.00000

 k-point   6 :       0.0641    0.0000    0.0641
  band No.  band energies     occupation 
      1      -5.3307      2.00000
      2       1.0011      2.00000
      3       1.1097      2.00000
      4       1.1098      2.00000
      5       1.8494      2.00000
      6       1.9260      2.00000
      7      26.2079      0.00000
      8      27.4586      0.00000
      9      27.4587      0.00000
     10      28.3887      0.00000
     11      33.0156      0.00000
     12      33.7379      0.00000

 k-point   7 :       0.0769    0.0000    0.0769
  band No.  band energies     occupation 
      1      -5.2437      2.00000
      2       0.9750      2.00000
      3       1.1307      2.00000
      4       1.1307      2.00000
      5       1.8262      2.00000
      6       1.9354      2.00000
      7      25.9737      0.00000
      8      26.9758      0.00000
      9      26.9759      0.00000
     10      28.1126      0.00000
     11      33.4369      0.00000
     12      34.2736      0.00000

 k-point   8 :       0.0897    0.0000    0.0897
  band No.  band energies     occupation 
      1      -5.1412      2.00000
      2       0.9446      2.00000
      3       1.1553      2.00000
      4       1.1554      2.00000
      5       1.7994      2.00000
      6       1.9465      2.00000
      7      25.7295      0.00000
      8      26.4886      0.00000
      9      26.4887      0.00000
     10      27.8186      0.00000
     11      33.9023      0.00000
     12      34.1551      0.00000

 k-point   9 :       0.1026    0.0000    0.1026
  band No.  band energies     occupation 
      1      -5.0236      2.00000
      2       0.9101      2.00000
      3       1.1837      2.00000
      4       1.1837      2.00000
      5       1.7694      2.00000
      6       1.9590      2.00000
      7      25.4811      0.00000
      8      26.0018      0.00000
      9      26.0019      0.00000
     10      27.5125      0.00000
     11      33.3740      0.00000
     12      34.4057      0.00000

 k-point  10 :       0.1154    0.0000    0.1154
  band No.  band energies     occupation 
      1      -4.8911      2.00000
      2       0.8720      2.00000
      3       1.2156      2.00000
      4       1.2156      2.00000
      5       1.7366      2.00000
      6       1.9731      2.00000
      7      25.2329      0.00000
      8      25.5182      0.00000
      9      25.5183      0.00000
     10      27.1981      0.00000
     11      32.5504      0.00000
     12      34.9424      0.00000

 k-point  11 :       0.1282    0.0000    0.1282
  band No.  band energies     occupation 
      1      -4.7441      2.00000
      2       0.8303      2.00000
      3       1.2511      2.00000
      4       1.2511      2.00000
      5       1.7015      2.00000
      6       1.9884      2.00000
      7      24.9879      0.00000
      8      25.0398      0.00000
      9      25.0399      0.00000
     10      26.8768      0.00000
     11      31.7136      0.00000
     12      35.5090      0.00000

 k-point  12 :       0.1410    0.0000    0.1410
  band No.  band energies     occupation 
      1      -4.5829      2.00000
      2       0.7855      2.00000
      3       1.2900      2.00000
      4       1.2900      2.00000
      5       1.6645      2.00000
      6       2.0051      2.00000
      7      24.5680      0.00000
      8      24.5681      0.00000
      9      24.7484      0.00000
     10      26.5481      0.00000
     11      30.8806      0.00000
     12      36.1031      0.00000

 k-point  13 :       0.1538    0.0000    0.1538
  band No.  band energies     occupation 
      1      -4.4082      2.00000
      2       0.7378      2.00000
      3       1.3322      2.00000
      4       1.3323      2.00000
      5       1.6265      2.00000
      6       2.0229      2.00000
      7      24.1040      0.00000
      8      24.1041      0.00000
      9      24.5158      0.00000
     10      26.2085      0.00000
     11      30.0645      0.00000
     12      36.7225      0.00000

 k-point  14 :       0.1667    0.0000    0.1667
  band No.  band energies     occupation 
      1      -4.2206      2.00000
      2       0.6876      2.00000
      3       1.3771      2.00000
      4       1.3772      2.00000
      5       1.5843      2.00000
      6       2.0418      2.00000
      7      23.6463      0.00000
      8      23.6464      0.00000
      9      24.2912      0.00000
     10      25.8411      0.00000
     11      29.2721      0.00000
     12      37.3656      0.00000

 k-point  15 :       0.1795    0.0000    0.1795
  band No.  band energies     occupation 
      1      -4.0206      2.00000
      2       0.6352      2.00000
      3       1.4254      2.00000
      4       1.4255      2.00000
      5       1.5458      2.00000
      6       2.0617      2.00000
      7      23.2003      0.00000
      8      23.2004      0.00000
      9      24.0756      0.00000
     10      25.4524      0.00000
     11      28.5321      0.00000
     12      38.0318      0.00000

 k-point  16 :       0.1923    0.0000    0.1923
  band No.  band energies     occupation 
      1      -3.8094      2.00000
      2       0.5810      2.00000
      3       1.4766      2.00000
      4       1.4766      2.00000
      5       1.5090      2.00000
      6       2.0823      2.00000
      7      22.7643      0.00000
      8      22.7644      0.00000
      9      23.8694      0.00000
     10      25.0195      0.00000
     11      27.8551      0.00000
     12      38.7199      0.00000

 k-point  17 :       0.2051    0.0000    0.2051
  band No.  band energies     occupation 
      1      -3.5882      2.00000
      2       0.5254      2.00000
      3       1.4753      2.00000
      4       1.5303      2.00000
      5       1.5304      2.00000
      6       2.1036      2.00000
      7      22.3390      0.00000
      8      22.3391      0.00000
      9      23.6728      0.00000
     10      24.5269      0.00000
     11      27.2585      0.00000
     12      39.4293      0.00000

 k-point  18 :       0.2179    0.0000    0.2179
  band No.  band energies     occupation 
      1      -3.3582      2.00000
      2       0.4688      2.00000
      3       1.4461      2.00000
      4       1.5865      2.00000
      5       1.5865      2.00000
      6       2.1255      2.00000
      7      21.9249      0.00000
      8      21.9250      0.00000
      9      23.4860      0.00000
     10      23.9659      0.00000
     11      26.7526      0.00000
     12      40.1603      0.00000

 k-point  19 :       0.2308    0.0000    0.2308
  band No.  band energies     occupation 
      1      -3.1213      2.00000
      2       0.4114      2.00000
      3       1.4256      2.00000
      4       1.6458      2.00000
      5       1.6458      2.00000
      6       2.1479      2.00000
      7      21.5257      0.00000
      8      21.5258      0.00000
      9      23.3091      0.00000
     10      23.3579      0.00000
     11      26.3345      0.00000
     12      40.7167      0.00000

 k-point  20 :       0.2436    0.0000    0.2436
  band No.  band energies     occupation 
      1      -2.8799      2.00000
      2       0.3538      2.00000
      3       1.4118      2.00000
      4       1.7058      2.00000
      5       1.7058      2.00000
      6       2.1704      2.00000
      7      21.1354      0.00000
      8      21.1355      0.00000
      9      22.6798      0.00000
     10      23.1421      0.00000
     11      25.9916      0.00000
     12      41.2171      0.00000

 k-point  21 :       0.2564    0.0000    0.2564
  band No.  band energies     occupation 
      1      -2.6368      2.00000
      2       0.2963      2.00000
      3       1.4100      2.00000
      4       1.7674      2.00000
      5       1.7675      2.00000
      6       2.1930      2.00000
      7      20.7582      0.00000
      8      20.7583      0.00000
      9      21.9673      0.00000
     10      22.9849      0.00000
     11      25.7076      0.00000
     12      41.7174      0.00000

 k-point  22 :       0.2692    0.0000    0.2692
  band No.  band energies     occupation 
      1      -2.3955      2.00000
      2       0.2392      2.00000
      3       1.4239      2.00000
      4       1.8303      2.00000
      5       1.8304      2.00000
      6       2.2156      2.00000
      7      20.3946      0.00000
      8      20.3948      0.00000
      9      21.2346      0.00000
     10      22.8374      0.00000
     11      25.4687      0.00000
     12      42.2186      0.00000

 k-point  23 :       0.2821    0.0000    0.2821
  band No.  band energies     occupation 
      1      -2.1603      2.00000
      2       0.1830      2.00000
      3       1.4579      2.00000
      4       1.8941      2.00000
      5       1.8941      2.00000
      6       2.2381      2.00000
      7      20.0453      0.00000
      8      20.0454      0.00000
      9      20.4925      0.00000
     10      22.6995      0.00000
     11      25.2645      0.00000
     12      42.7224      0.00000

 k-point  24 :       0.2949    0.0000    0.2949
  band No.  band energies     occupation 
      1      -1.9361      2.00000
      2       0.1280      2.00000
      3       1.5167      2.00000
      4       1.9583      2.00000
      5       1.9583      2.00000
      6       2.2602      2.00000
      7      19.7107      0.00000
      8      19.7108      0.00000
      9      19.7483      0.00000
     10      22.5709      0.00000
     11      25.0879      0.00000
     12      43.2302      0.00000

 k-point  25 :       0.3077    0.0000    0.3077
  band No.  band energies     occupation 
      1      -1.7283      2.00000
      2       0.0731      2.00000
      3       1.6055      2.00000
      4       2.0208      2.00000
      5       2.0208      2.00000
      6       2.2819      2.00000
      7      19.0069      0.00000
      8      19.3904      0.00000
      9      19.3905      0.00000
     10      22.4316      0.00000
     11      24.9340      0.00000
     12      43.7439      0.00000

 k-point  26 :       0.3205    0.0000    0.3205
  band No.  band energies     occupation 
      1      -1.5419      2.00000
      2       0.0212      2.00000
      3       1.7292      2.00000
      4       2.0844      2.00000
      5       2.0844      2.00000
      6       2.3029      2.00000
      7      18.2727      0.00000
      8      19.0875      0.00000
      9      19.0877      0.00000
     10      22.3199      0.00000
     11      24.7992      0.00000
     12      44.2645      0.00000

 k-point  27 :       0.3333    0.0000    0.3333
  band No.  band energies     occupation 
      1      -1.3807      2.00000
      2      -0.0284      2.00000
      3       1.8911      2.00000
      4       2.1470      2.00000
      5       2.1471      2.00000
      6       2.3232      2.00000
      7      17.5485      0.00000
      8      18.8014      0.00000
      9      18.8016      0.00000
     10      22.2168      0.00000
     11      24.6809      0.00000
     12      44.7929      0.00000

 k-point  28 :       0.3462    0.0000    0.3462
  band No.  band energies     occupation 
      1      -1.2469      2.00000
      2      -0.0757      2.00000
      3       2.0926      2.00000
      4       2.2082      2.00000
      5       2.2082      2.00000
      6       2.3426      2.00000
      7      16.8370      0.00000
      8      18.5327      0.00000
      9      18.5329      0.00000
     10      22.1224      0.00000
     11      24.5771      0.00000
     12      45.3301      0.00000

 k-point  29 :       0.3590    0.0000    0.3590
  band No.  band energies     occupation 
      1      -1.1399      2.00000
      2      -0.1200      2.00000
      3       2.2716      2.00000
      4       2.2716      2.00000
      5       2.3330      2.00000
      6       2.3620      2.00000
      7      16.1453      0.00000
      8      18.2850      0.00000
      9      18.2851      0.00000
     10      22.0417      0.00000
     11      24.4897      0.00000
     12      45.8847      0.00000

 k-point  30 :       0.3718    0.0000    0.3718
  band No.  band energies     occupation 
      1      -1.0577      2.00000
      2      -0.1616      2.00000
      3       2.3276      2.00000
      4       2.3276      2.00000
      5       2.3791      2.00000
      6       2.6073      2.00000
      7      15.4661      0.00000
      8      18.0526      0.00000
      9      18.0527      0.00000
     10      21.9634      0.00000
     11      24.4107      0.00000
     12      46.2568      0.00000

 k-point  31 :       0.3846    0.0000    0.3846
  band No.  band energies     occupation 
      1      -0.9968      2.00000
      2      -0.1999      2.00000
      3       2.3805      2.00000
      4       2.3806      2.00000
      5       2.3950      2.00000
      6       2.9106      2.00000
      7      14.8076      0.00000
      8      17.8397      0.00000
      9      17.8398      0.00000
     10      21.8931      0.00000
     11      24.3421      0.00000
     12      46.3668      0.00000

 k-point  32 :       0.3974    0.0000    0.3974
  band No.  band energies     occupation 
      1      -0.9531      2.00000
      2      -0.2348      2.00000
      3       2.4117      2.00000
      4       2.4319      2.00000
      5       2.4319      2.00000
      6       3.2363      2.00000
      7      14.1732      0.00000
      8      17.6478      0.00000
      9      17.6479      0.00000
     10      21.8307      0.00000
     11      24.2831      0.00000
     12      46.5445      0.00000

 k-point  33 :       0.4103    0.0000    0.4103
  band No.  band energies     occupation 
      1      -0.9228      2.00000
      2      -0.2661      2.00000
      3       2.4246      2.00000
      4       2.4768      2.00000
      5       2.4768      2.00000
      6       3.5764      2.00000
      7      13.5676      0.00000
      8      17.4759      0.00000
      9      17.4760      0.00000
     10      21.7760      0.00000
     11      24.2329      0.00000
     12      46.6690      0.00000

 k-point  34 :       0.4231    0.0000    0.4231
  band No.  band energies     occupation 
      1      -0.9025      2.00000
      2      -0.2935      2.00000
      3       2.4359      2.00000
      4       2.5169      2.00000
      5       2.5169      2.00000
      6       3.9220      2.00000
      7      12.9969      0.00000
      8      17.3255      0.00000
      9      17.3256      0.00000
     10      21.7288      0.00000
     11      24.1907      0.00000
     12      46.8042      0.00000

[...]
      5       2.5708      2.00000
      6       6.4591      0.00000
      7      11.1908      0.00000
      8      13.3008      0.00000
      9      17.5938      0.00000
     10      22.7264      0.00000
     11      27.5782      0.00000
     12      44.0608      0.00000

 k-point 219 :       0.5673    0.1346    0.5673
  band No.  band energies     occupation 
      1      -0.6703      2.00000
      2      -0.2545      2.00000
      3       2.0192      2.00000
      4       2.3212      2.00000
      5       2.5764      2.00000
      6       6.3718      0.00000
      7      11.1755      0.00000
      8      13.5190      0.00000
      9      17.5334      0.00000
     10      22.6933      0.00000
     11      27.3008      0.00000
     12      44.2516      0.00000

 k-point 220 :       0.5641    0.1282    0.5641
  band No.  band energies     occupation 
      1      -0.6881      2.00000
      2      -0.2648      2.00000
      3       2.0622      2.00000
      4       2.3340      2.00000
      5       2.5818      2.00000
      6       6.2868      0.00000
      7      11.1607      0.00000
      8      13.7371      0.00000
      9      17.4756      0.00000
     10      22.6589      0.00000
     11      27.0295      0.00000
     12      44.4423      0.00000

 k-point 221 :       0.5609    0.1218    0.5609
  band No.  band energies     occupation 
      1      -0.7052      2.00000
      2      -0.2747      2.00000
      3       2.1049      2.00000
      4       2.3462      2.00000
      5       2.5869      2.00000
      6       6.2040      0.00000
      7      11.1466      0.00000
      8      13.9548      0.00000
      9      17.4205      0.00000
     10      22.6229      0.00000
     11      26.7650      0.00000
     12      44.6328      0.00000

 k-point 222 :       0.5577    0.1154    0.5577
  band No.  band energies     occupation 
      1      -0.7216      2.00000
      2      -0.2842      2.00000
      3       2.1472      2.00000
      4       2.3580      2.00000
      5       2.5918      2.00000
      6       6.1236      0.00000
      7      11.1332      0.00000
      8      14.1717      0.00000
      9      17.3681      0.00000
     10      22.5849      0.00000
     11      26.5078      0.00000
     12      44.8227      0.00000

 k-point 223 :       0.5545    0.1090    0.5545
  band No.  band energies     occupation 
      1      -0.7373      2.00000
      2      -0.2933      2.00000
      3       2.1891      2.00000
      4       2.3693      2.00000
      5       2.5964      2.00000
      6       6.0458      0.00000
      7      11.1205      0.00000
      8      14.3872      0.00000
      9      17.3183      0.00000
     10      22.5444      0.00000
     11      26.2589      0.00000
     12      45.0116      0.00000

 k-point 224 :       0.5513    0.1026    0.5513
  band No.  band energies     occupation 
      1      -0.7522      2.00000
      2      -0.3019      2.00000
      3       2.2304      2.00000
      4       2.3801      2.00000
      5       2.6007      2.00000
      6       5.9706      0.00000
      7      11.1085      0.00000
      8      14.6010      0.00000
      9      17.2713      0.00000
     10      22.5010      0.00000
     11      26.0190      0.00000
     12      45.1992      0.00000

 k-point 225 :       0.5481    0.0962    0.5481
  band No.  band energies     occupation 
      1      -0.7663      2.00000
      2      -0.3101      2.00000
      3       2.2708      2.00000
      4       2.3904      2.00000
      5       2.6048      2.00000
      6       5.8983      0.00000
      7      11.0973      0.00000
      8      14.8124      0.00000
      9      17.2270      0.00000
     10      22.4543      0.00000
     11      25.7892      0.00000
     12      45.3848      0.00000

 k-point 226 :       0.5449    0.0897    0.5449
  band No.  band energies     occupation 
      1      -0.7796      2.00000
      2      -0.3178      2.00000
      3       2.3103      2.00000
      4       2.4001      2.00000
      5       2.6086      2.00000
      6       5.8290      0.00000
      7      11.0868      0.00000
      8      15.0208      0.00000
      9      17.1855      0.00000
     10      22.4038      0.00000
     11      25.5704      0.00000
     12      45.5680      0.00000

 k-point 227 :       0.5417    0.0833    0.5417
  band No.  band energies     occupation 
      1      -0.7921      2.00000
      2      -0.3250      2.00000
      3       2.3487      2.00000
      4       2.4092      2.00000
      5       2.6122      2.00000
      6       5.7630      0.00000
      7      11.0771      0.00000
      8      15.2254      0.00000
      9      17.1467      0.00000
     10      22.3492      0.00000
     11      25.3640      0.00000
     12      45.7481      0.00000

 k-point 228 :       0.5385    0.0769    0.5385
  band No.  band energies     occupation 
      1      -0.8038      2.00000
      2      -0.3317      2.00000
      3       2.3857      2.00000
      4       2.4177      2.00000
      5       2.6155      2.00000
      6       5.7003      0.00000
      7      11.0681      0.00000
      8      15.4255      0.00000
      9      17.1107      0.00000
     10      22.2900      0.00000
     11      25.1709      0.00000
     12      45.9242      0.00000

 k-point 229 :       0.5353    0.0705    0.5353
  band No.  band energies     occupation 
      1      -0.8146      2.00000
      2      -0.3380      2.00000
      3       2.4210      2.00000
      4       2.4256      2.00000
      5       2.6185      2.00000
      6       5.6413      0.00000
      7      11.0598      0.00000
      8      15.6199      0.00000
      9      17.0776      0.00000
     10      22.2262      0.00000
     11      24.9922      0.00000
     12      46.0954      0.00000

 k-point 230 :       0.5321    0.0641    0.5321
  band No.  band energies     occupation 
      1      -0.8245      2.00000
      2      -0.3437      2.00000
      3       2.4329      2.00000
      4       2.4546      2.00000
      5       2.6213      2.00000
      6       5.5862      0.00000
      7      11.0523      0.00000
      8      15.8075      0.00000
      9      17.0472      0.00000
     10      22.1581      0.00000
     11      24.8290      0.00000
     12      46.2606      0.00000

 k-point 231 :       0.5288    0.0577    0.5288
  band No.  band energies     occupation 
      1      -0.8335      2.00000
      2      -0.3489      2.00000
      3       2.4395      2.00000
      4       2.4861      2.00000
      5       2.6238      2.00000
      6       5.5352      0.00000
      7      11.0456      0.00000
      8      15.9869      0.00000
      9      17.0197      0.00000
     10      22.0862      0.00000
     11      24.6820      0.00000
     12      46.4186      0.00000

 k-point 232 :       0.5256    0.0513    0.5256
  band No.  band energies     occupation 
      1      -0.8416      2.00000
      2      -0.3535      2.00000
      3       2.4454      2.00000
      4       2.5152      2.00000
      5       2.6260      2.00000
      6       5.4886      0.00000
      7      11.0395      0.00000
      8      16.1564      0.00000
      9      16.9951      0.00000
     10      22.0117      0.00000
     11      24.5517      0.00000
     12      46.5678      0.00000

 k-point 233 :       0.5224    0.0449    0.5224
  band No.  band energies     occupation 
      1      -0.8488      2.00000
      2      -0.3577      2.00000
      3       2.4507      2.00000
      4       2.5417      2.00000
      5       2.6280      2.00000
      6       5.4467      0.00000
      7      11.0342      0.00000
      8      16.3142      0.00000
      9      16.9733      0.00000
     10      21.9361      0.00000
     11      24.4383      0.00000
     12      46.7067      0.00000

 k-point 234 :       0.5192    0.0385    0.5192
  band No.  band energies     occupation 
      1      -0.8550      2.00000
      2      -0.3612      2.00000
      3       2.4553      2.00000
      4       2.5654      2.00000
      5       2.6297      2.00000
      6       5.4097      0.00000
      7      11.0296      0.00000
      8      16.4582      0.00000
      9      16.9544      0.00000
     10      21.8618      0.00000
     11      24.3416      0.00000
     12      46.8333      0.00000

 k-point 235 :       0.5160    0.0321    0.5160
  band No.  band energies     occupation 
      1      -0.8603      2.00000
      2      -0.3643      2.00000
      3       2.4592      2.00000
      4       2.5859      2.00000
      5       2.6312      2.00000
      6       5.3779      0.00000
      7      11.0257      0.00000
      8      16.5861      0.00000
      9      16.9384      0.00000
     10      21.7914      0.00000
     11      24.2613      0.00000
     12      46.9455      0.00000

 k-point 236 :       0.5128    0.0256    0.5128
  band No.  band energies     occupation 
      1      -0.8647      2.00000
      2      -0.3668      2.00000
      3       2.4624      2.00000
      4       2.6031      2.00000
      5       2.6324      2.00000
      6       5.3514      0.00000
      7      11.0226      0.00000
      8      16.6954      0.00000
      9      16.9253      0.00000
     10      21.7279      0.00000
     11      24.1968      0.00000
     12      47.0413      0.00000

 k-point 237 :       0.5096    0.0192    0.5096
  band No.  band energies     occupation 
      1      -0.8681      2.00000
      2      -0.3687      2.00000
      3       2.4649      2.00000
      4       2.6167      2.00000
      5       2.6333      2.00000
      6       5.3306      0.00000
      7      11.0201      0.00000
      8      16.7837      0.00000
      9      16.9151      0.00000
     10      21.6744      0.00000
     11      24.1476      0.00000
     12      47.1186      0.00000

 k-point 238 :       0.5064    0.0128    0.5064
  band No.  band energies     occupation 
      1      -0.8705      2.00000
      2      -0.3701      2.00000
      3       2.4667      2.00000
      4       2.6265      2.00000
      5       2.6340      2.00000
      6       5.3157      0.00000
      7      11.0183      0.00000
      8      16.8488      0.00000
      9      16.9078      0.00000
     10      21.6337      0.00000
     11      24.1128      0.00000
     12      47.1753      0.00000

 k-point 239 :       0.5032    0.0064    0.5032
  band No.  band energies     occupation 
      1      -0.8720      2.00000
      2      -0.3710      2.00000
      3       2.4678      2.00000
      4       2.6325      2.00000
      5       2.6344      2.00000
      6       5.3066      0.00000
      7      11.0173      0.00000
      8      16.8886      0.00000
      9      16.9035      0.00000
     10      21.6083      0.00000
     11      24.0922      0.00000
     12      47.2101      0.00000

 k-point 240 :       0.5000    0.0000    0.5000
  band No.  band energies     occupation 
      1      -0.8724      2.00000
      2      -0.3712      2.00000
      3       2.4682      2.00000
      4       2.6345      2.00000
      5       2.6345      2.00000
      6       5.3036      0.00000
      7      11.0169      0.00000
      8      16.9020      0.00000
      9      16.9021      0.00000
     10      21.5997      0.00000
     11      24.0854      0.00000
     12      47.2218      0.00000


--------------------------------------------------------------------------------------------------------


 soft charge-density along one line, spin component           1
         0         1         2         3         4         5         6         7         8         9
 total charge-density along one line
 
 pseudopotential strength for first ion, spin component:           1
 -6.110   0.000   0.000   0.000  -0.000  -0.415   0.000  -0.000
  0.000  -6.110  -0.000   0.000   0.000   0.000  -0.415   0.000
  0.000  -0.000  -6.100  -0.000  -0.000  -0.000   0.000  -0.419
  0.000   0.000  -0.000  -6.110  -0.000   0.000   0.000   0.000
 -0.000   0.000  -0.000  -0.000  -6.100   0.000  -0.000   0.000
 -0.415   0.000  -0.000   0.000   0.000   1.770  -0.000   0.000
  0.000  -0.415   0.000   0.000  -0.000  -0.000   1.770  -0.000
 -0.000   0.000  -0.419   0.000   0.000   0.000  -0.000   1.772
  0.000   0.000   0.000  -0.415   0.000  -0.000  -0.000  -0.000
  0.000  -0.000   0.000   0.000  -0.419  -0.000   0.000  -0.000
  0.000   0.000  -0.000   0.000  -0.000   0.000   0.000  -0.000
 -0.000  -0.000   0.000  -0.000   0.000   0.000   0.000  -0.000
  0.000   0.000  -0.000   0.000  -0.000  -0.000  -0.000   0.000
  0.000   0.000   0.000   0.000   0.000  -0.000  -0.000  -0.000
  0.000   0.000  -0.000   0.000   0.000  -0.000  -0.000   0.000
 -0.000  -0.000   0.000   0.000   0.000   0.000   0.000  -0.000
  0.000  -0.000  -0.000  -0.000  -0.000  -0.000   0.000   0.000
 -0.000   0.000   0.000  -0.000  -0.000   0.000  -0.000  -0.000
 total augmentation occupancy for first ion, spin component:           1
  1.879   0.003   0.022  -0.006   0.000  -0.203   0.083   0.039   0.074  -0.000  -0.104   0.036   0.000  -0.000  -0.000  -0.000
  0.003   2.090  -0.014   0.001   0.032   0.083   0.296  -0.025   0.046   0.033  -0.141   0.046  -0.000   0.000  -0.000  -0.000
  0.022  -0.014   1.918  -0.020  -0.043   0.039  -0.025  -0.171  -0.033  -0.159   0.164  -0.035   0.000  -0.000   0.000   0.000
 -0.006   0.001  -0.020   1.892  -0.043   0.074   0.046  -0.033  -0.060  -0.048  -0.166   0.069  -0.000  -0.000  -0.000  -0.000
  0.000   0.032  -0.043  -0.043   1.978   0.000   0.033  -0.159  -0.048   0.147  -0.176   0.078   0.000  -0.000   0.000   0.000
 -0.203   0.083   0.039   0.074   0.000   0.083   0.007  -0.009   0.002  -0.000  -0.048   0.017   0.000   0.000  -0.000  -0.000
  0.083   0.296  -0.025   0.046   0.033   0.007   0.090   0.002   0.011  -0.005  -0.062   0.020   0.000   0.000   0.000  -0.000
  0.039  -0.025  -0.171  -0.033  -0.159  -0.009   0.002   0.066   0.008  -0.017   0.039  -0.014   0.000   0.000   0.000   0.000
  0.074   0.046  -0.033  -0.060  -0.048   0.002   0.011   0.008   0.076   0.014  -0.102   0.028  -0.000   0.000  -0.000  -0.000
 -0.000   0.033  -0.159  -0.048   0.147  -0.000  -0.005  -0.017   0.014   0.112  -0.119   0.029   0.000   0.000   0.000  -0.000
 -0.104  -0.141   0.164  -0.166  -0.176  -0.048  -0.062   0.039  -0.102  -0.119   1.160  -0.538  -0.000  -0.000   0.000  -0.000
  0.036   0.046  -0.035   0.069   0.078   0.017   0.020  -0.014   0.028   0.029  -0.538   0.304   0.000  -0.000  -0.000  -0.000
  0.000  -0.000   0.000  -0.000   0.000   0.000   0.000   0.000  -0.000   0.000  -0.000   0.000   0.116   0.076   0.066  -0.007
 -0.000   0.000  -0.000  -0.000  -0.000   0.000   0.000   0.000   0.000   0.000  -0.000  -0.000   0.076   0.122   0.098  -0.004
 -0.000  -0.000   0.000  -0.000   0.000  -0.000   0.000   0.000  -0.000   0.000   0.000  -0.000   0.066   0.098   0.240  -0.003
 -0.000  -0.000   0.000  -0.000   0.000  -0.000  -0.000   0.000  -0.000  -0.000  -0.000  -0.000  -0.007  -0.004  -0.003   0.000
  0.000  -0.000  -0.000   0.000  -0.000   0.000   0.000   0.000   0.000   0.000  -0.000   0.000  -0.004  -0.008  -0.006   0.000
 -0.000  -0.000   0.000  -0.000   0.000  -0.000  -0.000   0.000  -0.000  -0.000   0.000  -0.000  -0.003  -0.006  -0.014   0.000


------------------------ aborting loop because EDIFF is reached ----------------------------------------


 


 total charge     
 
# of ion     s       p       d       tot
----------------------------------------
  1        0.457   0.316   9.296  10.069
 


--------------------------------------------------------------------------------------------------------


    CHARGE:  VPU time    0.01: CPU time    0.01
    FORLOC:  VPU time    0.00: CPU time    0.00
    FORNL :  VPU time    0.01: CPU time    0.01
    STRESS:  VPU time    0.07: CPU time    0.08
    FORCOR:  VPU time    0.00: CPU time    0.00
    FORHAR:  VPU time    0.00: CPU time    0.00
    MIXING:  VPU time    0.00: CPU time    0.00


--------------------------------------------------------------------------------------------------------



  FREE ENERGIE OF THE ION-ELECTRON SYSTEM (eV)
  ---------------------------------------------------
  free  energy   TOTEN  =        -4.226335 eV

  energy  without entropy=       -4.226335  energy(sigma->0) =       -4.226335
 

  FORCE on cell =-STRESS in cart. coord.  units (eV/reduce length):
  Direction    X        Y        Z        XY       YZ       ZX
  --------------------------------------------------------------------------------------
  Alpha Z    107.26    107.26    107.26
  Ewald     -367.80   -367.80   -367.80      0.00      0.00      0.00
  Hartree    103.24    103.24    103.24      0.00      0.00      0.00
  E(xc)      -63.17    -63.17    -63.17      0.00      0.00      0.00
  Local      123.65    123.65    123.65      0.00      0.00      0.00
  n-local    -39.46    -37.95    -37.03     -0.23     -0.43     -0.41
  augment     55.70     55.70     55.70     -0.00     -0.00     -0.00
  Kinetic     81.99     78.30     78.00      1.63      1.51      2.19
  -------------------------------------------------------------------------------------
  Total        0.17      0.17      0.17     -0.00     -0.00     -0.00
  in kB       22.71     22.71     22.71     -0.00     -0.00     -0.00
  external pressure =       22.71 kB  Pullay stress =        0.00 kB


 VOLUME and BASIS-vectors are now :
 -----------------------------------------------------------------------------
  energy-cutoff  :      273.25
  volume of cell :       11.86
      direct lattice vectors                 reciprocal lattice vectors
     1.810000000  1.810000000  0.000000000     0.276243094  0.276243094 -0.276243094
     0.000000000  1.810000000  1.810000000    -0.276243094  0.276243094  0.276243094
     1.810000000  0.000000000  1.810000000     0.276243094 -0.276243094  0.276243094

  length of vectors
     2.559726548  2.559726548  2.559726548     0.478467074  0.478467074  0.478467074


 FORCES acting on ions
    electron-ion (+dipol)            ewald-force                    non-local-force                 convergence-correction
 -----------------------------------------------------------------------------------------------
   -.378E-13 0.140E-14 -.275E-13   0.300E-14 0.640E-15 -.775E-16   0.961E-23 -.260E-23 0.299E-23   -.505E-13 -.449E-13 -.259E-14
 -----------------------------------------------------------------------------------------------
   -.378E-13 0.140E-14 -.275E-13   0.300E-14 0.640E-15 -.775E-16   0.961E-23 -.260E-23 0.299E-23   -.505E-13 -.449E-13 -.259E-14
 
 
 POSITION                                       TOTAL-FORCE (eV/Angst)
 -----------------------------------------------------------------------------------
      0.00000      0.00000      0.00000        -0.000000     -0.000000      0.000000
 -----------------------------------------------------------------------------------
    total drift:                               -0.000000     -0.000000     -0.000000


--------------------------------------------------------------------------------------------------------



 mean value of Nose-termostat <S>:     1.000 mean value of <T> :     0.000
 mean temperature <T/S>/<1/S>  :     0.000

 writing wavefunctions
     LOOP+:  VPU time    4.29: CPU time    4.31
 


 total charge     
 
# of ion     s       p       d       tot
----------------------------------------
  1        0.457   0.316   9.296  10.069
 
  
  
 General timing and accounting informations for this job:
 ========================================================
  
                  Total CPU time used (sec):        4.519
                            User time (sec):        2.456
                          System time (sec):        2.064
                         Elapsed time (sec):        4.536
  
                   Maximum memory used (kb):      134988.
                   Average memory used (kb):           0.
  
                          Minor page faults:        30976
                          Major page faults:            0
                 Voluntary context switches:          663
