PROCAR lm decomposed
# of k-points:  240         # of bands:  12         # of ions:   1

 k-point    1 :    0.00000000 0.00000000 0.00000000     weight = 0.00416667

band   1 # energy   -5.52967815 # occ.  2.00000000
 
ion      s     py     pz     px    dxy    dyz    dz2    dxz    dx2    tot
  1  0.600  0.000  0.000  0.000  0.000  0.000  0.000  0.000  0.000  0.600
 
band   2 # energy    1.06549788 # occ.  2.00000000
 
ion      s     py     pz     px    dxy    dyz    dz2    dxz    dx2    tot
  1  0.000  0.000  0.000  0.000  0.484  0.484  0.000  0.000  0.000  0.968
 
band   3 # energy    1.06551589 # occ.  2.00000000
 
ion      s     py     pz     px    dxy    dyz    dz2    dxz    dx2    tot
  1  0.000  0.000  0.000  0.000  0.387  0.388  0.000  0.194  0.000  0.968
 
band   4 # energy    1.06554407 # occ.  2.00000000
 
ion      s     py     pz     px    dxy    dyz    dz2    dxz    dx2    tot
  1  0.000  0.000  0.000  0.000  0.097  0.097  0.000  0.774  0.000  0.968
 
band   5 # energy    1.90641442 # occ.  2.00000000
 
ion      s     py     pz     px    dxy    dyz    dz2    dxz    dx2    tot
  1  0.000  0.000  0.000  0.000  0.000  0.000  0.738  0.000  0.248  0.986
 
band   6 # energy    1.90641945 # occ.  2.00000000
 
ion      s     py     pz     px    dxy    dyz    dz2    dxz    dx2    tot
  1  0.000  0.000  0.000  0.000  0.000  0.000  0.248  0.000  0.738  0.986
 
band   7 # energy   26.88678746 # occ.  0.00000000
 
ion      s     py     pz     px    dxy    dyz    dz2    dxz    dx2    tot
  1  0.000  0.000  0.000  0.000  0.000  0.000  0.000  0.000  0.000  0.000
 
band   8 # energy   29.15864538 # occ.  0.00000000
 
ion      s     py     pz     px    dxy    dyz    dz2    dxz    dx2    tot
  1  0.000  0.185  0.144  0.144  0.000  0.000  0.000  0.000  0.000  0.472
 
band   9 # energy   29.15888354 # occ.  0.00000000
 
ion      s     py     pz     px    dxy    dyz    dz2    dxz    dx2    tot
  1  0.000  0.287  0.092  0.092  0.000  0.000  0.000  0.000  0.000  0.472
 
band  10 # energy   29.15890154 # occ.  0.00000000
 
ion      s     py     pz     px    dxy    dyz    dz2    dxz    dx2    tot
  1  0.000  0.000  0.236  0.236  0.000  0.000  0.000  0.000  0.000  0.472
 
band  11 # energy   31.99282207 # occ.  0.00000000
 
ion      s     py     pz     px    dxy    dyz    dz2    dxz    dx2    tot
  1  0.000  0.000  0.000  0.000  0.212  0.624  0.000  0.020  0.000  0.856
 
band  12 # energy   31.99305620 # occ.  0.00000000
 
ion      s     py     pz     px    dxy    dyz    dz2    dxz    dx2    tot
  1  0.000  0.000  0.000  0.000  0.319  0.185  0.000  0.352  0.000  0.856
 

 k-point    2 :    0.01282051 0.00000000 0.01282051     weight = 0.00416667

band   1 # energy   -5.52171856 # occ.  2.00000000
 
ion      s     py     pz     px    dxy    dyz    dz2    dxz    dx2    tot
  1  0.600  0.000  0.000  0.000  0.000  0.000  0.000  0.000  0.000  0.600
 
band   2 # energy    1.06264929 # occ.  2.00000000
 
ion      s     py     pz     px    dxy    dyz    dz2    dxz    dx2    tot
  1  0.000  0.000  0.000  0.000  0.000  0.968  0.000  0.000  0.000  0.968
 
band   3 # energy    1.06599179 # occ.  2.00000000
 
ion      s     py     pz     px    dxy    dyz    dz2    dxz    dx2    tot
  1  0.000  0.000  0.000  0.000  0.888  0.000  0.000  0.080  0.000  0.968
 
band   4 # energy    1.06602647 # occ.  2.00000000
 
ion      s     py     pz     px    dxy    dyz    dz2    dxz    dx2    tot
  1  0.000  0.000  0.000  0.000  0.080  0.000  0.000  0.888  0.000  0.968
 
band   5 # energy    1.90280315 # occ.  2.00000000
 
ion      s     py     pz     px    dxy    dyz    dz2    dxz    dx2    tot
  1  0.000  0.000  0.000  0.000  0.000  0.000  0.247  0.000  0.739  0.985
 
band   6 # energy    1.90732190 # occ.  2.00000000
 
ion      s     py     pz     px    dxy    dyz    dz2    dxz    dx2    tot
  1  0.000  0.000  0.000  0.000  0.000  0.000  0.739  0.000  0.247  0.986
 
band   7 # energy   26.85419357 # occ.  0.00000000
 
ion      s     py     pz     px    dxy    dyz    dz2    dxz    dx2    tot
  1  0.000  0.000  0.000  0.000  0.000  0.009  0.000  0.000  0.000  0.009
 
band   8 # energy   29.05088300 # occ.  0.00000000
 
ion      s     py     pz     px    dxy    dyz    dz2    dxz    dx2    tot
  1  0.000  0.284  0.176  0.000  0.018  0.000  0.000  0.011  0.000  0.490
 
band   9 # energy   29.05103960 # occ.  0.00000000
 
ion      s     py     pz     px    dxy    dyz    dz2    dxz    dx2    tot
  1  0.000  0.176  0.284  0.000  0.011  0.000  0.000  0.018  0.000  0.490
 
band  10 # energy   29.12257344 # occ.  0.00000000
 
ion      s     py     pz     px    dxy    dyz    dz2    dxz    dx2    tot
  1  0.002  0.000  0.000  0.465  0.000  0.000  0.000  0.000  0.001  0.468
 
band  11 # energy   32.03496521 # occ.  0.00000000
 
ion      s     py     pz     px    dxy    dyz    dz2    dxz    dx2    tot
  1  0.000  0.000  0.000  0.000  0.001  0.847  0.000  0.001  0.000  0.849
 
band  12 # energy   32.06927343 # occ.  0.00000000
 
ion      s     py     pz     px    dxy    dyz    dz2    dxz    dx2    tot
  1  0.000  0.006  0.005  0.000  0.435  0.000  0.000  0.400  0.000  0.846
 

 k-point    3 :    0.02564103 0.00000000 0.02564103     weight = 0.00416667

band   1 # energy   -5.49779522 # occ.  2.00000000
 
ion      s     py     pz     px    dxy    dyz    dz2    dxz    dx2    tot
  1  0.599  0.000  0.000  0.002  0.000  0.000  0.000  0.000  0.000  0.600
 
band   2 # energy    1.05238402 # occ.  2.00000000
 
ion      s     py     pz     px    dxy    dyz    dz2    dxz    dx2    tot
  1  0.000  0.000  0.000  0.000  0.000  0.967  0.000  0.000  0.000  0.967
 
band   3 # energy    1.06990176 # occ.  2.00000000
 
ion      s     py     pz     px    dxy    dyz    dz2    dxz    dx2    tot
  1  0.000  0.000  0.000  0.000  0.891  0.000  0.000  0.076  0.000  0.967
 
band   4 # energy    1.06993634 # occ.  2.00000000
 
ion      s     py     pz     px    dxy    dyz    dz2    dxz    dx2    tot
  1  0.000  0.000  0.000  0.000  0.076  0.000  0.000  0.891  0.000  0.967
 
band   5 # energy    1.89529485 # occ.  2.00000000
 
ion      s     py     pz     px    dxy    dyz    dz2    dxz    dx2    tot
  1  0.000  0.000  0.000  0.000  0.000  0.000  0.246  0.000  0.739  0.985
 
band   6 # energy    1.90786403 # occ.  2.00000000
 
ion      s     py     pz     px    dxy    dyz    dz2    dxz    dx2    tot
  1  0.000  0.000  0.000  0.000  0.000  0.000  0.739  0.000  0.247  0.985
 
band   7 # energy   26.75958549 # occ.  0.00000000
 
ion      s     py     pz     px    dxy    dyz    dz2    dxz    dx2    tot
  1  0.000  0.000  0.000  0.000  0.000  0.036  0.000  0.000  0.000  0.036
 
band   8 # energy   28.76411801 # occ.  0.00000000
 
ion      s     py     pz     px    dxy    dyz    dz2    dxz    dx2    tot
  1  0.000  0.302  0.136  0.000  0.064  0.000  0.000  0.029  0.000  0.530
 
band   9 # energy   28.76425338 # occ.  0.00000000
 
ion      s     py     pz     px    dxy    dyz    dz2    dxz    dx2    tot
  1  0.000  0.136  0.302  0.000  0.029  0.000  0.000  0.064  0.000  0.530
 
band  10 # energy   29.01721549 # occ.  0.00000000
 
ion      s     py     pz     px    dxy    dyz    dz2    dxz    dx2    tot
  1  0.008  0.000  0.000  0.447  0.000  0.000  0.001  0.000  0.002  0.458
 
band  11 # energy   32.10868980 # occ.  0.00000000
 
ion      s     py     pz     px    dxy    dyz    dz2    dxz    dx2    tot
  1  0.000  0.000  0.000  0.000  0.000  0.843  0.000  0.000  0.000  0.843
 
band  12 # energy   32.32970162 # occ.  0.00000000
 
ion      s     py     pz     px    dxy    dyz    dz2    dxz    dx2    tot
  1  0.000  0.017  0.016  0.000  0.395  0.000  0.000  0.382  0.000  0.811
 

 k-point    4 :    0.03846154 0.00000000 0.03846154     weight = 0.00416667

band   1 # energy   -5.45790189 # occ.  2.00000000
 
ion      s     py     pz     px    dxy    dyz    dz2    dxz    dx2    tot
  1  0.597  0.000  0.000  0.004  0.000  0.000  0.000  0.000  0.000  0.600
 
band   2 # energy    1.03996015 # occ.  2.00000000
 
ion      s     py     pz     px    dxy    dyz    dz2    dxz    dx2    tot
  1  0.000  0.000  0.000  0.000  0.000  0.966  0.000  0.000  0.000  0.966
 
band   3 # energy    1.07931980 # occ.  2.00000000
 
ion      s     py     pz     px    dxy    dyz    dz2    dxz    dx2    tot
  1  0.000  0.000  0.000  0.000  0.891  0.000  0.000  0.076  0.000  0.967
 
band   4 # energy    1.07935431 # occ.  2.00000000
 
ion      s     py     pz     px    dxy    dyz    dz2    dxz    dx2    tot
  1  0.000  0.000  0.000  0.000  0.076  0.000  0.000  0.891  0.000  0.967
 
band   5 # energy    1.88415420 # occ.  2.00000000
 
ion      s     py     pz     px    dxy    dyz    dz2    dxz    dx2    tot
  1  0.000  0.000  0.000  0.000  0.000  0.000  0.246  0.000  0.738  0.985
 
band   6 # energy    1.91217525 # occ.  2.00000000
 
ion      s     py     pz     px    dxy    dyz    dz2    dxz    dx2    tot
  1  0.000  0.000  0.000  0.000  0.000  0.000  0.739  0.000  0.246  0.985
 
band   7 # energy   26.61204814 # occ.  0.00000000
 
ion      s     py     pz     px    dxy    dyz    dz2    dxz    dx2    tot
  1  0.000  0.000  0.000  0.000  0.000  0.074  0.000  0.000  0.000  0.074
 
band   8 # energy   28.37353082 # occ.  0.00000000
 
ion      s     py     pz     px    dxy    dyz    dz2    dxz    dx2    tot
  1  0.000  0.324  0.096  0.000  0.114  0.000  0.000  0.034  0.000  0.567
 
band   9 # energy   28.37364978 # occ.  0.00000000
 
ion      s     py     pz     px    dxy    dyz    dz2    dxz    dx2    tot
  1  0.000  0.096  0.324  0.000  0.034  0.000  0.000  0.114  0.000  0.567
 
band  10 # energy   28.85211126 # occ.  0.00000000
 
ion      s     py     pz     px    dxy    dyz    dz2    dxz    dx2    tot
  1  0.017  0.000  0.000  0.420  0.000  0.000  0.002  0.000  0.005  0.444
 
band  11 # energy   32.34008656 # occ.  0.00000000
 
ion      s     py     pz     px    dxy    dyz    dz2    dxz    dx2    tot
  1  0.000  0.000  0.000  0.000  0.000  0.806  0.000  0.000  0.000  0.806
 
band  12 # energy   32.74455741 # occ.  0.00000000
 
ion      s     py     pz     px    dxy    dyz    dz2    dxz    dx2    tot
  1  0.000  0.026  0.023  0.000  0.378  0.000  0.000  0.334  0.000  0.761
 

 k-point    5 :    0.05128205 0.00000000 0.05128205     weight = 0.00416667

band   1 # energy   -5.40216640 # occ.  2.00000000
 
ion      s     py     pz     px    dxy    dyz    dz2    dxz    dx2    tot
  1  0.594  0.000  0.000  0.007  0.000  0.000  0.000  0.000  0.000  0.600
 
band   2 # energy    1.02283051 # occ.  2.00000000
 
ion      s     py     pz     px    dxy    dyz    dz2    dxz    dx2    tot
  1  0.000  0.000  0.000  0.000  0.000  0.965  0.000  0.000  0.000  0.965
 
band   3 # energy    1.09261387 # occ.  2.00000000
 
ion      s     py     pz     px    dxy    dyz    dz2    dxz    dx2    tot
  1  0.000  0.000  0.000  0.000  0.890  0.000  0.000  0.076  0.000  0.967
 
band   4 # energy    1.09264825 # occ.  2.00000000
 
ion      s     py     pz     px    dxy    dyz    dz2    dxz    dx2    tot
  1  0.000  0.000  0.000  0.000  0.076  0.000  0.000  0.890  0.000  0.967
 
band   5 # energy    1.86880686 # occ.  2.00000000
 
ion      s     py     pz     px    dxy    dyz    dz2    dxz    dx2    tot
  1  0.000  0.000  0.000  0.000  0.000  0.000  0.246  0.000  0.738  0.984
 
band   6 # energy    1.91823306 # occ.  2.00000000
 
ion      s     py     pz     px    dxy    dyz    dz2    dxz    dx2    tot
  1  0.000  0.000  0.000  0.000  0.000  0.000  0.739  0.000  0.246  0.985
 
band   7 # energy   26.42409749 # occ.  0.00000000
 
ion      s     py     pz     px    dxy    dyz    dz2    dxz    dx2    tot
  1  0.000  0.000  0.000  0.000  0.000  0.119  0.000  0.000  0.000  0.119
 
band   8 # energy   27.92927534 # occ.  0.00000000
 
ion      s     py     pz     px    dxy    dyz    dz2    dxz    dx2    tot
  1  0.000  0.345  0.064  0.000  0.159  0.000  0.000  0.029  0.000  0.597
 
band   9 # energy   27.92938406 # occ.  0.00000000
 
ion      s     py     pz     px    dxy    dyz    dz2    dxz    dx2    tot
  1  0.000  0.064  0.345  0.000  0.029  0.000  0.000  0.159  0.000  0.596
 
band  10 # energy   28.63864086 # occ.  0.00000000
 
ion      s     py     pz     px    dxy    dyz    dz2    dxz    dx2    tot
  1  0.028  0.000  0.000  0.387  0.000  0.000  0.003  0.000  0.010  0.427
 
band  11 # energy   32.64647987 # occ.  0.00000000
 
ion      s     py     pz     px    dxy    dyz    dz2    dxz    dx2    tot
  1  0.000  0.000  0.000  0.000  0.000  0.762  0.000  0.000  0.000  0.762
 
band  12 # energy   33.22323037 # occ.  0.00000000
 
ion      s     py     pz     px    dxy    dyz    dz2    dxz    dx2    tot
  1  0.000  0.030  0.027  0.000  0.345  0.000  0.000  0.312  0.000  0.714
 

 k-point    6 :    0.06410256 0.00000000 0.06410256     weight = 0.00416667

band   1 # energy   -5.33071500 # occ.  2.00000000
 
ion      s     py     pz     px    dxy    dyz    dz2    dxz    dx2    tot
  1  0.590  0.000  0.000  0.010  0.000  0.000  0.000  0.000  0.000  0.600
 
band   2 # energy    1.00110874 # occ.  2.00000000
 
ion      s     py     pz     px    dxy    dyz    dz2    dxz    dx2    tot
  1  0.000  0.000  0.000  0.000  0.000  0.964  0.000  0.000  0.000  0.964
 
band   3 # energy    1.10974314 # occ.  2.00000000
 
ion      s     py     pz     px    dxy    dyz    dz2    dxz    dx2    tot
  1  0.000  0.001  0.000  0.000  0.889  0.000  0.000  0.077  0.000  0.967
 
band   4 # energy    1.10977734 # occ.  2.00000000
 
ion      s     py     pz     px    dxy    dyz    dz2    dxz    dx2    tot
  1  0.000  0.000  0.001  0.000  0.077  0.000  0.000  0.889  0.000  0.967
 
band   5 # energy    1.84941236 # occ.  2.00000000
 
ion      s     py     pz     px    dxy    dyz    dz2    dxz    dx2    tot
  1  0.000  0.000  0.000  0.000  0.000  0.000  0.246  0.000  0.737  0.983
 
band   6 # energy    1.92600143 # occ.  2.00000000
 
ion      s     py     pz     px    dxy    dyz    dz2    dxz    dx2    tot
  1  0.000  0.000  0.000  0.000  0.000  0.000  0.739  0.000  0.246  0.986
 
band   7 # energy   26.20791064 # occ.  0.00000000
 
ion      s     py     pz     px    dxy    dyz    dz2    dxz    dx2    tot
  1  0.000  0.000  0.000  0.000  0.000  0.164  0.000  0.000  0.000  0.164
 
band   8 # energy   27.45861264 # occ.  0.00000000
 
ion      s     py     pz     px    dxy    dyz    dz2    dxz    dx2    tot
  1  0.000  0.363  0.042  0.000  0.192  0.000  0.000  0.022  0.000  0.618
 
band   9 # energy   27.45871620 # occ.  0.00000000
 
ion      s     py     pz     px    dxy    dyz    dz2    dxz    dx2    tot
  1  0.000  0.042  0.362  0.000  0.022  0.000  0.000  0.192  0.000  0.618
 
band  10 # energy   28.38868779 # occ.  0.00000000
 
ion      s     py     pz     px    dxy    dyz    dz2    dxz    dx2    tot
  1  0.039  0.000  0.000  0.350  0.000  0.000  0.005  0.000  0.015  0.410
 
band  11 # energy   33.01555704 # occ.  0.00000000
 
ion      s     py     pz     px    dxy    dyz    dz2    dxz    dx2    tot
  1  0.000  0.000  0.000  0.000  0.000  0.718  0.000  0.000  0.000  0.718
 
band  12 # energy   33.73792735 # occ.  0.00000000
 
ion      s     py     pz     px    dxy    dyz    dz2    dxz    dx2    tot
  1  0.000  0.030  0.029  0.000  0.313  0.000  0.000  0.297  0.000  0.669
 

 k-point    7 :    0.07692308 0.00000000 0.07692308     weight = 0.00416667

band   1 # energy   -5.24366454 # occ.  2.00000000
 
ion      s     py     pz     px    dxy    dyz    dz2    dxz    dx2    tot
  1  0.585  0.000  0.000  0.015  0.000  0.000  0.000  0.000  0.000  0.600
 
band   2 # energy    0.97495223 # occ.  2.00000000
 
ion      s     py     pz     px    dxy    dyz    dz2    dxz    dx2    tot
  1  0.000  0.000  0.000  0.000  0.000  0.963  0.000  0.000  0.000  0.963
 
band   3 # energy    1.13066085 # occ.  2.00000000
 
ion      s     py     pz     px    dxy    dyz    dz2    dxz    dx2    tot
  1  0.000  0.001  0.000  0.000  0.889  0.000  0.000  0.077  0.000  0.967
 
band   4 # energy    1.13069479 # occ.  2.00000000
 
ion      s     py     pz     px    dxy    dyz    dz2    dxz    dx2    tot
  1  0.000  0.000  0.001  0.000  0.077  0.000  0.000  0.889  0.000  0.967
 
band   5 # energy    1.82619932 # occ.  2.00000000
 
ion      s     py     pz     px    dxy    dyz    dz2    dxz    dx2    tot
  1  0.000  0.000  0.000  0.000  0.000  0.000  0.245  0.000  0.736  0.982
 
band   6 # energy    1.93543050 # occ.  2.00000000
 
ion      s     py     pz     px    dxy    dyz    dz2    dxz    dx2    tot
  1  0.000  0.000  0.000  0.000  0.000  0.000  0.739  0.000  0.246  0.986
 
band   7 # energy   25.97372840 # occ.  0.00000000
 
ion      s     py     pz     px    dxy    dyz    dz2    dxz    dx2    tot
  1  0.000  0.000  0.000  0.000  0.000  0.208  0.000  0.000  0.000  0.208
 
band   8 # energy   26.97578623 # occ.  0.00000000
 
ion      s     py     pz     px    dxy    dyz    dz2    dxz    dx2    tot
  1  0.000  0.377  0.027  0.000  0.215  0.000  0.000  0.015  0.000  0.634
 
band   9 # energy   26.97588762 # occ.  0.00000000
 
ion      s     py     pz     px    dxy    dyz    dz2    dxz    dx2    tot
  1  0.000  0.027  0.377  0.000  0.015  0.000  0.000  0.215  0.000  0.634
 
band  10 # energy   28.11261580 # occ.  0.00000000
 
ion      s     py     pz     px    dxy    dyz    dz2    dxz    dx2    tot
  1  0.050  0.000  0.000  0.313  0.000  0.000  0.008  0.000  0.023  0.393
 
band  11 # energy   33.43689459 # occ.  0.00000000
 
ion      s     py     pz     px    dxy    dyz    dz2    dxz    dx2    tot
  1  0.000  0.000  0.000  0.000  0.000  0.675  0.000  0.000  0.000  0.675
 
band  12 # energy   34.27364039 # occ.  0.00000000
 
ion      s     py     pz     px    dxy    dyz    dz2    dxz    dx2    tot
  1  0.000  0.015  0.041  0.000  0.156  0.000  0.000  0.413  0.000  0.625
 

 k-point    8 :    0.08974359 0.00000000 0.08974359     weight = 0.00416667

band   1 # energy   -5.14120276 # occ.  2.00000000
 
ion      s     py     pz     px    dxy    dyz    dz2    dxz    dx2    tot
  1  0.580  0.000  0.000  0.020  0.000  0.000  0.000  0.000  0.000  0.601
 
band   2 # energy    0.94455431 # occ.  2.00000000
 
ion      s     py     pz     px    dxy    dyz    dz2    dxz    dx2    tot
  1  0.000  0.000  0.000  0.000  0.000  0.962  0.000  0.000  0.000  0.962
 
band   3 # energy    1.15532046 # occ.  2.00000000
 
ion      s     py     pz     px    dxy    dyz    dz2    dxz    dx2    tot
  1  0.000  0.001  0.000  0.000  0.889  0.000  0.000  0.077  0.000  0.967
 
band   4 # energy    1.15535410 # occ.  2.00000000
 
ion      s     py     pz     px    dxy    dyz    dz2    dxz    dx2    tot
  1  0.000  0.000  0.001  0.000  0.077  0.000  0.000  0.889  0.000  0.967
 
band   5 # energy    1.79943599 # occ.  2.00000000
 
ion      s     py     pz     px    dxy    dyz    dz2    dxz    dx2    tot
  1  0.000  0.000  0.000  0.000  0.000  0.000  0.245  0.000  0.735  0.981
 
band   6 # energy    1.94646350 # occ.  2.00000000
 
ion      s     py     pz     px    dxy    dyz    dz2    dxz    dx2    tot
  1  0.000  0.000  0.000  0.000  0.000  0.000  0.739  0.000  0.246  0.986
 
band   7 # energy   25.72949695 # occ.  0.00000000
 
ion      s     py     pz     px    dxy    dyz    dz2    dxz    dx2    tot
  1  0.000  0.000  0.000  0.000  0.000  0.249  0.000  0.000  0.000  0.249
 
band   8 # energy   26.48863535 # occ.  0.00000000
 
ion      s     py     pz     px    dxy    dyz    dz2    dxz    dx2    tot
  1  0.000  0.389  0.018  0.000  0.229  0.000  0.000  0.010  0.000  0.646
 
band   9 # energy   26.48873615 # occ.  0.00000000
 
ion      s     py     pz     px    dxy    dyz    dz2    dxz    dx2    tot
  1  0.000  0.018  0.389  0.000  0.010  0.000  0.000  0.229  0.000  0.646
 
band  10 # energy   27.81859283 # occ.  0.00000000
 
ion      s     py     pz     px    dxy    dyz    dz2    dxz    dx2    tot
  1  0.060  0.000  0.000  0.275  0.000  0.000  0.010  0.000  0.031  0.376
 
band  11 # energy   33.90232883 # occ.  0.00000000
 
ion      s     py     pz     px    dxy    dyz    dz2    dxz    dx2    tot
  1  0.000  0.000  0.000  0.000  0.000  0.635  0.000  0.000  0.000  0.635
 
band  12 # energy   34.15510621 # occ.  0.00000000
 
ion      s     py     pz     px    dxy    dyz    dz2    dxz    dx2    tot
  1  0.006  0.000  0.000  0.484  0.000  0.000  0.043  0.000  0.128  0.661
 

 k-point    9 :    0.10256410 0.00000000 0.10256410     weight = 0.00416667

band   1 # energy   -5.02359754 # occ.  2.00000000
 
ion      s     py     pz     px    dxy    dyz    dz2    dxz    dx2    tot
  1  0.573  0.000  0.000  0.026  0.000  0.000  0.000  0.000  0.001  0.601
 
band   2 # energy    0.91013989 # occ.  2.00000000
 
ion      s     py     pz     px    dxy    dyz    dz2    dxz    dx2    tot
  1  0.000  0.000  0.000  0.000  0.000  0.960  0.000  0.000  0.000  0.960
 
band   3 # energy    1.18366001 # occ.  2.00000000
 
ion      s     py     pz     px    dxy    dyz    dz2    dxz    dx2    tot
  1  0.000  0.002  0.000  0.000  0.888  0.000  0.000  0.077  0.000  0.967
 
band   4 # energy    1.18369331 # occ.  2.00000000
 
ion      s     py     pz     px    dxy    dyz    dz2    dxz    dx2    tot
  1  0.000  0.000  0.002  0.000  0.077  0.000  0.000  0.888  0.000  0.967
 
band   5 # energy    1.76943881 # occ.  2.00000000
 
ion      s     py     pz     px    dxy    dyz    dz2    dxz    dx2    tot
  1  0.001  0.000  0.000  0.000  0.000  0.000  0.245  0.000  0.734  0.980
 
band   6 # energy    1.95903089 # occ.  2.00000000
 
ion      s     py     pz     px    dxy    dyz    dz2    dxz    dx2    tot
  1  0.000  0.000  0.000  0.000  0.000  0.000  0.739  0.000  0.246  0.986
 
band   7 # energy   25.48112229 # occ.  0.00000000
 
ion      s     py     pz     px    dxy    dyz    dz2    dxz    dx2    tot
  1  0.000  0.000  0.000  0.000  0.000  0.287  0.000  0.000  0.000  0.287
 
band   8 # energy   26.00178764 # occ.  0.00000000
 
ion      s     py     pz     px    dxy    dyz    dz2    dxz    dx2    tot
  1  0.000  0.399  0.011  0.000  0.237  0.000  0.000  0.007  0.000  0.654
 
band   9 # energy   26.00188842 # occ.  0.00000000
 
ion      s     py     pz     px    dxy    dyz    dz2    dxz    dx2    tot
  1  0.000  0.011  0.399  0.000  0.007  0.000  0.000  0.237  0.000  0.654
 
band  10 # energy   27.51250615 # occ.  0.00000000
 
ion      s     py     pz     px    dxy    dyz    dz2    dxz    dx2    tot
  1  0.068  0.000  0.000  0.237  0.000  0.000  0.014  0.000  0.042  0.361
 
band  11 # energy   33.37397317 # occ.  0.00000000
 
ion      s     py     pz     px    dxy    dyz    dz2    dxz    dx2    tot
  1  0.017  0.000  0.000  0.503  0.000  0.000  0.048  0.000  0.144  0.713
 
band  12 # energy   34.40571052 # occ.  0.00000000
 
ion      s     py     pz     px    dxy    dyz    dz2    dxz    dx2    tot
  1  0.000  0.000  0.000  0.000  0.000  0.597  0.000  0.000  0.000  0.597
 

 k-point   10 :    0.11538462 0.00000000 0.11538462     weight = 0.00416667

band   1 # energy   -4.89111720 # occ.  2.00000000
 
ion      s     py     pz     px    dxy    dyz    dz2    dxz    dx2    tot
  1  0.566  0.000  0.000  0.033  0.000  0.000  0.000  0.000  0.001  0.601
 
band   2 # energy    0.87196370 # occ.  2.00000000
 
ion      s     py     pz     px    dxy    dyz    dz2    dxz    dx2    tot
  1  0.000  0.000  0.000  0.000  0.000  0.958  0.000  0.000  0.000  0.958
 
band   3 # energy    1.21560782 # occ.  2.00000000
 
ion      s     py     pz     px    dxy    dyz    dz2    dxz    dx2    tot
  1  0.000  0.002  0.000  0.000  0.888  0.000  0.000  0.077  0.000  0.968
 
band   4 # energy    1.21564071 # occ.  2.00000000
 
ion      s     py     pz     px    dxy    dyz    dz2    dxz    dx2    tot
  1  0.000  0.000  0.002  0.000  0.077  0.000  0.000  0.888  0.000  0.968
 
band   5 # energy    1.73661436 # occ.  2.00000000
 
ion      s     py     pz     px    dxy    dyz    dz2    dxz    dx2    tot
  1  0.001  0.000  0.000  0.000  0.000  0.000  0.244  0.000  0.732  0.978
 
band   6 # energy    1.97305307 # occ.  2.00000000
 
ion      s     py     pz     px    dxy    dyz    dz2    dxz    dx2    tot
  1  0.000  0.000  0.000  0.000  0.000  0.000  0.740  0.000  0.247  0.986
 
band   7 # energy   25.23289874 # occ.  0.00000000
 
ion      s     py     pz     px    dxy    dyz    dz2    dxz    dx2    tot
  1  0.000  0.000  0.000  0.000  0.000  0.323  0.000  0.000  0.000  0.323
 
band   8 # energy   25.51817328 # occ.  0.00000000
 
ion      s     py     pz     px    dxy    dyz    dz2    dxz    dx2    tot
  1  0.000  0.409  0.007  0.000  0.239  0.000  0.000  0.004  0.000  0.660
 
band   9 # energy   25.51827454 # occ.  0.00000000
 
ion      s     py     pz     px    dxy    dyz    dz2    dxz    dx2    tot
  1  0.000  0.007  0.409  0.000  0.004  0.000  0.000  0.239  0.000  0.660
 
band  10 # energy   27.19805699 # occ.  0.00000000
 
ion      s     py     pz     px    dxy    dyz    dz2    dxz    dx2    tot
  1  0.075  0.000  0.000  0.199  0.000  0.000  0.018  0.000  0.055  0.346
 
band  11 # energy   32.55041963 # occ.  0.00000000
 
ion      s     py     pz     px    dxy    dyz    dz2    dxz    dx2    tot
  1  0.032  0.000  0.000  0.517  0.000  0.000  0.049  0.000  0.148  0.747
 
band  12 # energy   34.94239475 # occ.  0.00000000
 
ion      s     py     pz     px    dxy    dyz    dz2    dxz    dx2    tot
  1  0.000  0.000  0.000  0.000  0.000  0.563  0.000  0.000  0.000  0.563
 

 k-point   11 :    0.12820513 0.00000000 0.12820513     weight = 0.00416667

band   1 # energy   -4.74409233 # occ.  2.00000000
 
ion      s     py     pz     px    dxy    dyz    dz2    dxz    dx2    tot
  1  0.558  0.000  0.000  0.041  0.000  0.000  0.001  0.000  0.002  0.601
 
band   2 # energy    0.83031103 # occ.  2.00000000
 
ion      s     py     pz     px    dxy    dyz    dz2    dxz    dx2    tot
  1  0.000  0.000  0.000  0.000  0.000  0.957  0.000  0.000  0.000  0.957
 
band   3 # energy    1.25109279 # occ.  2.00000000
 
ion      s     py     pz     px    dxy    dyz    dz2    dxz    dx2    tot
  1  0.000  0.003  0.000  0.000  0.888  0.000  0.000  0.077  0.000  0.968
 
band   4 # energy    1.25112523 # occ.  2.00000000
 
ion      s     py     pz     px    dxy    dyz    dz2    dxz    dx2    tot
  1  0.000  0.000  0.003  0.000  0.077  0.000  0.000  0.888  0.000  0.968
 
band   5 # energy    1.70145072 # occ.  2.00000000
 
ion      s     py     pz     px    dxy    dyz    dz2    dxz    dx2    tot
  1  0.002  0.000  0.000  0.001  0.000  0.000  0.244  0.000  0.731  0.976
 
band   6 # energy    1.98844386 # occ.  2.00000000
 
ion      s     py     pz     px    dxy    dyz    dz2    dxz    dx2    tot
  1  0.000  0.000  0.000  0.000  0.000  0.000  0.740  0.000  0.247  0.986
 
band   7 # energy   24.98791581 # occ.  0.00000000
 
ion      s     py     pz     px    dxy    dyz    dz2    dxz    dx2    tot
  1  0.000  0.000  0.000  0.000  0.000  0.355  0.000  0.000  0.000  0.355
 
band   8 # energy   25.03977764 # occ.  0.00000000
 
ion      s     py     pz     px    dxy    dyz    dz2    dxz    dx2    tot
  1  0.000  0.418  0.004  0.000  0.238  0.000  0.000  0.003  0.000  0.664
 
band   9 # energy   25.03987972 # occ.  0.00000000
 
ion      s     py     pz     px    dxy    dyz    dz2    dxz    dx2    tot
  1  0.000  0.004  0.418  0.000  0.003  0.000  0.000  0.238  0.000  0.664
 
band  10 # energy   26.87681498 # occ.  0.00000000
 
ion      s     py     pz     px    dxy    dyz    dz2    dxz    dx2    tot
  1  0.079  0.000  0.000  0.160  0.000  0.000  0.023  0.000  0.070  0.333
 
band  11 # energy   31.71360031 # occ.  0.00000000
 
ion      s     py     pz     px    dxy    dyz    dz2    dxz    dx2    tot
  1  0.050  0.000  0.000  0.531  0.000  0.000  0.048  0.000  0.145  0.774
 
band  12 # energy   35.50902953 # occ.  0.00000000
 
ion      s     py     pz     px    dxy    dyz    dz2    dxz    dx2    tot
  1  0.000  0.000  0.000  0.000  0.000  0.531  0.000  0.000  0.000  0.531
 

 k-point   12 :    0.14102564 0.00000000 0.14102564     weight = 0.00416667

band   1 # energy   -4.58294887 # occ.  2.00000000
 
ion      s     py     pz     px    dxy    dyz    dz2    dxz    dx2    tot
  1  0.549  0.000  0.000  0.049  0.000  0.000  0.001  0.000  0.003  0.601
 
band   2 # energy    0.78548123 # occ.  2.00000000
 
ion      s     py     pz     px    dxy    dyz    dz2    dxz    dx2    tot
  1  0.000  0.000  0.000  0.000  0.000  0.955  0.000  0.000  0.000  0.955
 
band   3 # energy    1.29000463 # occ.  2.00000000
 
ion      s     py     pz     px    dxy    dyz    dz2    dxz    dx2    tot
  1  0.000  0.003  0.000  0.000  0.887  0.000  0.000  0.077  0.000  0.968
 
band   4 # energy    1.29003654 # occ.  2.00000000
 
ion      s     py     pz     px    dxy    dyz    dz2    dxz    dx2    tot
  1  0.000  0.000  0.003  0.000  0.077  0.000  0.000  0.887  0.000  0.968
 
band   5 # energy    1.66450766 # occ.  2.00000000
 
ion      s     py     pz     px    dxy    dyz    dz2    dxz    dx2    tot
  1  0.002  0.000  0.000  0.001  0.000  0.000  0.243  0.000  0.728  0.974
 
band   6 # energy    2.00510632 # occ.  2.00000000
 
ion      s     py     pz     px    dxy    dyz    dz2    dxz    dx2    tot
  1  0.000  0.000  0.000  0.000  0.000  0.000  0.740  0.000  0.247  0.986
 
band   7 # energy   24.56801966 # occ.  0.00000000
 
ion      s     py     pz     px    dxy    dyz    dz2    dxz    dx2    tot
  1  0.000  0.427  0.003  0.000  0.234  0.000  0.000  0.002  0.000  0.666
 
band   8 # energy   24.56812255 # occ.  0.00000000
 
ion      s     py     pz     px    dxy    dyz    dz2    dxz    dx2    tot
  1  0.000  0.003  0.427  0.000  0.002  0.000  0.000  0.234  0.000  0.666
 
band   9 # energy   24.74837061 # occ.  0.00000000
 
ion      s     py     pz     px    dxy    dyz    dz2    dxz    dx2    tot
  1  0.000  0.000  0.000  0.000  0.000  0.386  0.000  0.000  0.000  0.386
 
band  10 # energy   26.54809612 # occ.  0.00000000
 
ion      s     py     pz     px    dxy    dyz    dz2    dxz    dx2    tot
  1  0.080  0.000  0.000  0.122  0.000  0.000  0.029  0.000  0.088  0.320
 
band  11 # energy   30.88063392 # occ.  0.00000000
 
ion      s     py     pz     px    dxy    dyz    dz2    dxz    dx2    tot