<?xml version="1.0" encoding="ISO-8859-1"?>
<modeling>
 <generator>
  <i name="program" type="string">vasp</i>
  <i name="version" type="string">4.6.28 </i>
  <i name="subversion" type="string">25Jul05 complex  parallel</i>
  <i name="platform" type="string">LinuxIFC</i>
  <i name="date" type="string">2019 02 03</i>
  <i name="time" type="string">19:07:56</i>
 </generator>
 <incar>
  <i type="string" name="PREC">medium</i>
  <i type="int" name="ISMEAR">     0</i>
  <i name="SIGMA">      0.01000000</i>
  <i type="logical" name="LORBIT"> F  </i>
 </incar>
 <kpoints>
  <generation param="listgenerated">
   <i name="divisions" type="int">      40</i>
   <v>       0.00000000      0.00000000      0.00000000</v>
   <v>       0.50000000      0.00000000      0.50000000</v>
   <v>       0.50000000      0.25000000      0.75000000</v>
   <v>       0.50000000      0.50000000      0.50000000</v>
   <v>       0.00000000      0.00000000      0.00000000</v>
   <v>       0.62500000      0.25000000      0.62500000</v>
   <v>       0.50000000      0.00000000      0.50000000</v>
  </generation>
  <varray name="kpointlist" >
   <v>       0.00000000      0.00000000      0.00000000</v>
   <v>       0.01282051      0.00000000      0.01282051</v>
   <v>       0.02564103      0.00000000      0.02564103</v>
   <v>       0.03846154      0.00000000      0.03846154</v>
   <v>       0.05128205      0.00000000      0.05128205</v>
   <v>       0.06410256      0.00000000      0.06410256</v>
   <v>       0.07692308      0.00000000      0.07692308</v>
   <v>       0.08974359      0.00000000      0.08974359</v>
   <v>       0.10256410      0.00000000      0.10256410</v>
   <v>       0.11538462      0.00000000      0.11538462</v>
   <v>       0.12820513      0.00000000      0.12820513</v>
   <v>       0.14102564      0.00000000      0.14102564</v>
   <v>       0.15384615      0.00000000      0.15384615</v>
   <v>       0.16666667      0.00000000      0.16666667</v>
   <v>       0.17948718      0.00000000      0.17948718</v>
   <v>       0.19230769      0.00000000      0.19230769</v>
   <v>       0.20512821      0.00000000      0.20512821</v>
   <v>       0.21794872      0.00000000      0.21794872</v>
   <v>       0.23076923      0.00000000      0.23076923</v>
   <v>       0.24358974      0.00000000      0.24358974</v>
   <v>       0.25641026      0.00000000      0.25641026</v>
   <v>       0.26923077      0.00000000      0.26923077</v>
   <v>       0.28205128      0.00000000      0.28205128</v>
   <v>       0.29487179      0.00000000      0.29487179</v>
   <v>       0.30769231      0.00000000      0.30769231</v>
   <v>       0.32051282      0.00000000      0.32051282</v>
   <v>       0.33333333      0.00000000      0.33333333</v>
   <v>       0.34615385      0.00000000      0.34615385</v>
   <v>       0.35897436      0.00000000      0.35897436</v>
   <v>       0.37179487      0.00000000      0.37179487</v>
   <v>       0.38461538      0.00000000      0.38461538</v>
   <v>       0.39743590      0.00000000      0.39743590</v>
   <v>       0.41025641      0.00000000      0.41025641</v>
   <v>       0.42307692      0.00000000      0.42307692</v>
   <v>       0.43589744      0.00000000      0.43589744</v>
   <v>       0.44871795      0.00000000      0.44871795</v>
   <v>       0.46153846      0.00000000      0.46153846</v>
   <v>       0.47435897      0.00000000      0.47435897</v>
   <v>       0.48717949      0.00000000      0.48717949</v>
   <v>       0.50000000      0.00000000      0.50000000</v>
   <v>       0.50000000      0.00000000      0.50000000</v>
   <v>       0.50000000      0.00641026      0.50641026</v>
   <v>       0.50000000      0.01282051      0.51282051</v>
   <v>       0.50000000      0.01923077      0.51923077</v>
   <v>       0.50000000      0.02564103      0.52564103</v>
   <v>       0.50000000      0.03205128      0.53205128</v>
   <v>       0.50000000      0.03846154      0.53846154</v>
   <v>       0.50000000      0.04487179      0.54487179</v>
   <v>       0.50000000      0.05128205      0.55128205</v>
   <v>       0.50000000      0.05769231      0.55769231</v>
   <v>       0.50000000      0.06410256      0.56410256</v>
   <v>       0.50000000      0.07051282      0.57051282</v>
   <v>       0.50000000      0.07692308      0.57692308</v>
   <v>       0.50000000      0.08333333      0.58333333</v>
   <v>       0.50000000      0.08974359      0.58974359</v>
   <v>       0.50000000      0.09615385      0.59615385</v>
   <v>       0.50000000      0.10256410      0.60256410</v>
   <v>       0.50000000      0.10897436      0.60897436</v>
   <v>       0.50000000      0.11538462      0.61538462</v>
   <v>       0.50000000      0.12179487      0.62179487</v>
   <v>       0.50000000      0.12820513      0.62820513</v>
   <v>       0.50000000      0.13461538      0.63461538</v>
   <v>       0.50000000      0.14102564      0.64102564</v>
   <v>       0.50000000      0.14743590      0.64743590</v>
   <v>       0.50000000      0.15384615      0.65384615</v>
   <v>       0.50000000      0.16025641      0.66025641</v>
   <v>       0.50000000      0.16666667      0.66666667</v>
   <v>       0.50000000      0.17307692      0.67307692</v>
   <v>       0.50000000      0.17948718      0.67948718</v>
   <v>       0.50000000      0.18589744      0.68589744</v>
   <v>       0.50000000      0.19230769      0.69230769</v>
   <v>       0.50000000      0.19871795      0.69871795</v>
   <v>       0.50000000      0.20512821      0.70512821</v>
   <v>       0.50000000      0.21153846      0.71153846</v>
   <v>       0.50000000      0.21794872      0.71794872</v>
   <v>       0.50000000      0.22435897      0.72435897</v>
   <v>       0.50000000      0.23076923      0.73076923</v>
   <v>       0.50000000      0.23717949      0.73717949</v>
   <v>       0.50000000      0.24358974      0.74358974</v>
   <v>       0.50000000      0.25000000      0.75000000</v>
   <v>       0.50000000      0.25000000      0.75000000</v>
   <v>       0.50000000      0.25641026      0.74358974</v>
   <v>       0.50000000      0.26282051      0.73717949</v>
   <v>       0.50000000      0.26923077      0.73076923</v>
   <v>       0.50000000      0.27564103      0.72435897</v>
   <v>       0.50000000      0.28205128      0.71794872</v>
   <v>       0.50000000      0.28846154      0.71153846</v>
   <v>       0.50000000      0.29487179      0.70512821</v>
   <v>       0.50000000      0.30128205      0.69871795</v>
   <v>       0.50000000      0.30769231      0.69230769</v>
   <v>       0.50000000      0.31410256      0.68589744</v>
   <v>       0.50000000      0.32051282      0.67948718</v>
   <v>       0.50000000      0.32692308      0.67307692</v>
   <v>       0.50000000      0.33333333      0.66666667</v>
   <v>       0.50000000      0.33974359      0.66025641</v>
   <v>       0.50000000      0.34615385      0.65384615</v>
   <v>       0.50000000      0.35256410      0.64743590</v>
   <v>       0.50000000      0.35897436      0.64102564</v>
   <v>       0.50000000      0.36538462      0.63461538</v>
   <v>       0.50000000      0.37179487      0.62820513</v>
   <v>       0.50000000      0.37820513      0.62179487</v>
   <v>       0.50000000      0.38461538      0.61538462</v>
   <v>       0.50000000      0.39102564      0.60897436</v>
   <v>       0.50000000      0.39743590      0.60256410</v>
   <v>       0.50000000      0.40384615      0.59615385</v>
   <v>       0.50000000      0.41025641      0.58974359</v>
   <v>       0.50000000      0.41666667      0.58333333</v>
   <v>       0.50000000      0.42307692      0.57692308</v>
   <v>       0.50000000      0.42948718      0.57051282</v>
   <v>       0.50000000      0.43589744      0.56410256</v>
   <v>       0.50000000      0.44230769      0.55769231</v>
   <v>       0.50000000      0.44871795      0.55128205</v>
   <v>       0.50000000      0.45512821      0.54487179</v>
   <v>       0.50000000      0.46153846      0.53846154</v>
   <v>       0.50000000      0.46794872      0.53205128</v>
   <v>       0.50000000      0.47435897      0.52564103</v>
   <v>       0.50000000      0.48076923      0.51923077</v>
   <v>       0.50000000      0.48717949      0.51282051</v>
   <v>       0.50000000      0.49358974      0.50641026</v>
   <v>       0.50000000      0.50000000      0.50000000</v>
   <v>       0.50000000      0.50000000      0.50000000</v>
   <v>       0.48717949      0.48717949      0.48717949</v>
   <v>       0.47435897      0.47435897      0.47435897</v>
   <v>       0.46153846      0.46153846      0.46153846</v>
   <v>       0.44871795      0.44871795      0.44871795</v>
   <v>       0.43589744      0.43589744      0.43589744</v>
   <v>       0.42307692      0.42307692      0.42307692</v>
   <v>       0.41025641      0.41025641      0.41025641</v>
   <v>       0.39743590      0.39743590      0.39743590</v>
   <v>       0.38461538      0.38461538      0.38461538</v>
   <v>       0.37179487      0.37179487      0.37179487</v>
   <v>       0.35897436      0.35897436      0.35897436</v>
   <v>       0.34615385      0.34615385      0.34615385</v>
   <v>       0.33333333      0.33333333      0.33333333</v>
   <v>       0.32051282      0.32051282      0.32051282</v>
   <v>       0.30769231      0.30769231      0.30769231</v>
   <v>       0.29487179      0.29487179      0.29487179</v>
   <v>       0.28205128      0.28205128      0.28205128</v>
   <v>       0.26923077      0.26923077      0.26923077</v>
   <v>       0.25641026      0.25641026      0.25641026</v>
   <v>       0.24358974      0.24358974      0.24358974</v>
   <v>       0.23076923      0.23076923      0.23076923</v>
   <v>       0.21794872      0.21794872      0.21794872</v>
   <v>       0.20512821      0.20512821      0.20512821</v>
   <v>       0.19230769      0.19230769      0.19230769</v>
   <v>       0.17948718      0.17948718      0.17948718</v>
   <v>       0.16666667      0.16666667      0.16666667</v>
   <v>       0.15384615      0.15384615      0.15384615</v>
   <v>       0.14102564      0.14102564      0.14102564</v>
   <v>       0.12820513      0.12820513      0.12820513</v>
   <v>       0.11538462      0.11538462      0.11538462</v>
   <v>       0.10256410      0.10256410      0.10256410</v>
   <v>       0.08974359      0.08974359      0.08974359</v>
   <v>       0.07692308      0.07692308      0.07692308</v>
   <v>       0.06410256      0.06410256      0.06410256</v>
   <v>       0.05128205      0.05128205      0.05128205</v>
   <v>       0.03846154      0.03846154      0.03846154</v>
   <v>       0.02564103      0.02564103      0.02564103</v>
   <v>       0.01282051      0.01282051      0.01282051</v>
   <v>       0.00000000      0.00000000      0.00000000</v>
   <v>       0.00000000      0.00000000      0.00000000</v>
   <v>       0.00961538      0.00961538      0.01923077</v>
   <v>       0.01923077      0.01923077      0.03846154</v>
   <v>       0.02884615      0.02884615      0.05769231</v>
   <v>       0.03846154      0.03846154      0.07692308</v>
   <v>       0.04807692      0.04807692      0.09615385</v>
   <v>       0.05769231      0.05769231      0.11538462</v>
   <v>       0.06730769      0.06730769      0.13461538</v>
   <v>       0.07692308      0.07692308      0.15384615</v>
   <v>       0.08653846      0.08653846      0.17307692</v>
   <v>       0.09615385      0.09615385      0.19230769</v>
   <v>       0.10576923      0.10576923      0.21153846</v>
   <v>       0.11538462      0.11538462      0.23076923</v>
   <v>       0.12500000      0.12500000      0.25000000</v>
   <v>       0.13461538      0.13461538      0.26923077</v>
   <v>       0.14423077      0.14423077      0.28846154</v>
   <v>       0.15384615      0.15384615      0.30769231</v>
   <v>       0.16346154      0.16346154      0.32692308</v>
   <v>       0.17307692      0.17307692      0.34615385</v>
   <v>       0.18269231      0.18269231      0.36538462</v>
   <v>       0.19230769      0.19230769      0.38461538</v>
   <v>       0.20192308      0.20192308      0.40384615</v>
   <v>       0.21153846      0.21153846      0.42307692</v>
   <v>       0.22115385      0.22115385      0.44230769</v>
   <v>       0.23076923      0.23076923      0.46153846</v>
   <v>       0.24038462      0.24038462      0.48076923</v>
   <v>       0.25000000      0.25000000      0.50000000</v>
   <v>       0.25961538      0.25961538      0.51923077</v>
   <v>       0.26923077      0.26923077      0.53846154</v>
   <v>       0.27884615      0.27884615      0.55769231</v>
   <v>       0.28846154      0.28846154      0.57692308</v>
   <v>       0.29807692      0.29807692      0.59615385</v>
   <v>       0.30769231      0.30769231      0.61538462</v>
   <v>       0.31730769      0.31730769      0.63461538</v>
   <v>       0.32692308      0.32692308      0.65384615</v>
   <v>       0.33653846      0.33653846      0.67307692</v>
   <v>       0.34615385      0.34615385      0.69230769</v>
   <v>       0.35576923      0.35576923      0.71153846</v>
   <v>       0.36538462      0.36538462      0.73076923</v>
   <v>       0.37500000      0.37500000      0.75000000</v>
   <v>       0.62500000      0.25000000      0.62500000</v>
   <v>       0.62179487      0.24358974      0.62179487</v>
   <v>       0.61858974      0.23717949      0.61858974</v>
   <v>       0.61538462      0.23076923      0.61538462</v>
   <v>       0.61217949      0.22435897      0.61217949</v>
   <v>       0.60897436      0.21794872      0.60897436</v>
   <v>       0.60576923      0.21153846      0.60576923</v>
   <v>       0.60256410      0.20512821      0.60256410</v>
   <v>       0.59935897      0.19871795      0.59935897</v>
   <v>       0.59615385      0.19230769      0.59615385</v>
   <v>       0.59294872      0.18589744      0.59294872</v>
   <v>       0.58974359      0.17948718      0.58974359</v>
   <v>       0.58653846      0.17307692      0.58653846</v>
   <v>       0.58333333      0.16666667      0.58333333</v>
   <v>       0.58012821      0.16025641      0.58012821</v>
   <v>       0.57692308      0.15384615      0.57692308</v>
   <v>       0.57371795      0.14743590      0.57371795</v>
   <v>       0.57051282      0.14102564      0.57051282</v>
   <v>       0.56730769      0.13461538      0.56730769</v>
   <v>       0.56410256      0.12820513      0.56410256</v>
   <v>       0.56089744      0.12179487      0.56089744</v>
   <v>       0.55769231      0.11538462      0.55769231</v>
   <v>       0.55448718      0.10897436      0.55448718</v>
   <v>       0.55128205      0.10256410      0.55128205</v>
   <v>       0.54807692      0.09615385      0.54807692</v>
   <v>       0.54487179      0.08974359      0.54487179</v>
   <v>       0.54166667      0.08333333      0.54166667</v>
   <v>       0.53846154      0.07692308      0.53846154</v>
   <v>       0.53525641      0.07051282      0.53525641</v>
   <v>       0.53205128      0.06410256      0.53205128</v>
   <v>       0.52884615      0.05769231      0.52884615</v>
   <v>       0.52564103      0.05128205      0.52564103</v>
   <v>       0.52243590      0.04487179      0.52243590</v>
   <v>       0.51923077      0.03846154      0.51923077</v>
   <v>       0.51602564      0.03205128      0.51602564</v>
   <v>       0.51282051      0.02564103      0.51282051</v>
   <v>       0.50961538      0.01923077      0.50961538</v>
   <v>       0.50641026      0.01282051      0.50641026</v>
   <v>       0.50320513      0.00641026      0.50320513</v>
   <v>       0.50000000      0.00000000      0.50000000</v>
  </varray>
  <varray name="weights" >
   <v>       0.00416667</v>
   <v>       0.00416667</v>
   <v>       0.00416667</v>
   <v>       0.00416667</v>
   <v>       0.00416667</v>
   <v>       0.00416667</v>
   <v>       0.00416667</v>
   <v>       0.00416667</v>
   <v>       0.00416667</v>
   <v>       0.00416667</v>
   <v>       0.00416667</v>
   <v>       0.00416667</v>
   <v>       0.00416667</v>
   <v>       0.00416667</v>
   <v>       0.00416667</v>
   <v>       0.00416667</v>
   <v>       0.00416667</v>
   <v>       0.00416667</v>
   <v>       0.00416667</v>
   <v>       0.00416667</v>
   <v>       0.00416667</v>
   <v>       0.00416667</v>
   <v>       0.00416667</v>
   <v>       0.00416667</v>
   <v>       0.00416667</v>
   <v>       0.00416667</v>
   <v>       0.00416667</v>
   <v>       0.00416667</v>
   <v>       0.00416667</v>
   <v>       0.00416667</v>
   <v>       0.00416667</v>
   <v>       0.00416667</v>
   <v>       0.00416667</v>
   <v>       0.00416667</v>
   <v>       0.00416667</v>
   <v>       0.00416667</v>
   <v>       0.00416667</v>
   <v>       0.00416667</v>
   <v>       0.00416667</v>
   <v>       0.00416667</v>
   <v>       0.00416667</v>
   <v>       0.00416667</v>
   <v>       0.00416667</v>
   <v>       0.00416667</v>
   <v>       0.00416667</v>
   <v>       0.00416667</v>
   <v>       0.00416667</v>
   <v>       0.00416667</v>
   <v>       0.00416667</v>
   <v>       0.00416667</v>
   <v>       0.00416667</v>
   <v>       0.00416667</v>
   <v>       0.00416667</v>
   <v>       0.00416667</v>
   <v>       0.00416667</v>
   <v>       0.00416667</v>
   <v>       0.00416667</v>
   <v>       0.00416667</v>
   <v>       0.00416667</v>
   <v>       0.00416667</v>
   <v>       0.00416667</v>
   <v>       0.00416667</v>
   <v>       0.00416667</v>
   <v>       0.00416667</v>
   <v>       0.00416667</v>
   <v>       0.00416667</v>
   <v>       0.00416667</v>
   <v>       0.00416667</v>
   <v>       0.00416667</v>
   <v>       0.00416667</v>
   <v>       0.00416667</v>
   <v>       0.00416667</v>
   <v>       0.00416667</v>
   <v>       0.00416667</v>
   <v>       0.00416667</v>
   <v>       0.00416667</v>
   <v>       0.00416667</v>
   <v>       0.00416667</v>
   <v>       0.00416667</v>
   <v>       0.00416667</v>
   <v>       0.00416667</v>
   <v>       0.00416667</v>
   <v>       0.00416667</v>
   <v>       0.00416667</v>
   <v>       0.00416667</v>
   <v>       0.00416667</v>
   <v>       0.00416667</v>
   <v>       0.00416667</v>
   <v>       0.00416667</v>
   <v>       0.00416667</v>
   <v>       0.00416667</v>
   <v>       0.00416667</v>
   <v>       0.00416667</v>
   <v>       0.00416667</v>
   <v>       0.00416667</v>
   <v>       0.00416667</v>
   <v>       0.00416667</v>
   <v>       0.00416667</v>
   <v>       0.00416667</v>
   <v>       0.00416667</v>
   <v>       0.00416667</v>
   <v>       0.00416667</v>
   <v>       0.00416667</v>
   <v>       0.00416667</v>
   <v>       0.00416667</v>
   <v>       0.00416667</v>
   <v>       0.00416667</v>
   <v>       0.00416667</v>
   <v>       0.00416667</v>
   <v>       0.00416667</v>
   <v>       0.00416667</v>
   <v>       0.00416667</v>
   <v>       0.00416667</v>
   <v>       0.00416667</v>
   <v>       0.00416667</v>
   <v>       0.00416667</v>
   <v>       0.00416667</v>
   <v>       0.00416667</v>
   <v>       0.00416667</v>
   <v>       0.00416667</v>
   <v>       0.00416667</v>
   <v>       0.00416667</v>
   <v>       0.00416667</v>
   <v>       0.00416667</v>
   <v>       0.00416667</v>
   <v>       0.00416667</v>
   <v>       0.00416667</v>
   <v>       0.00416667</v>
   <v>       0.00416667</v>
   <v>       0.00416667</v>
   <v>       0.00416667</v>
   <v>       0.00416667</v>
   <v>       0.00416667</v>
   <v>       0.00416667</v>
   <v>       0.00416667</v>
   <v>       0.00416667</v>
   <v>       0.00416667</v>
   <v>       0.00416667</v>
   <v>       0.00416667</v>
   <v>       0.00416667</v>
   <v>       0.00416667</v>
   <v>       0.00416667</v>
   <v>       0.00416667</v>
   <v>       0.00416667</v>
   <v>       0.00416667</v>
   <v>       0.00416667</v>
   <v>       0.00416667</v>
   <v>       0.00416667</v>
   <v>       0.00416667</v>
   <v>       0.00416667</v>
   <v>       0.00416667</v>
   <v>       0.00416667</v>
   <v>       0.00416667</v>
   <v>       0.00416667</v>
   <v>       0.00416667</v>
   <v>       0.00416667</v>
   <v>       0.00416667</v>
   <v>       0.00416667</v>
   <v>       0.00416667</v>
   <v>       0.00416667</v>
   <v>       0.00416667</v>
   <v>       0.00416667</v>
   <v>       0.00416667</v>
   <v>       0.00416667</v>
   <v>       0.00416667</v>
   <v>       0.00416667</v>
   <v>       0.00416667</v>
   <v>       0.00416667</v>
   <v>       0.00416667</v>
   <v>       0.00416667</v>
   <v>       0.00416667</v>
   <v>       0.00416667</v>
   <v>       0.00416667</v>
   <v>       0.00416667</v>
   <v>       0.00416667</v>
   <v>       0.00416667</v>
   <v>       0.00416667</v>
   <v>       0.00416667</v>
   <v>       0.00416667</v>
   <v>       0.00416667</v>
   <v>       0.00416667</v>
   <v>       0.00416667</v>
   <v>       0.00416667</v>
   <v>       0.00416667</v>
   <v>       0.00416667</v>
   <v>       0.00416667</v>
   <v>       0.00416667</v>
   <v>       0.00416667</v>
   <v>       0.00416667</v>
   <v>       0.00416667</v>
   <v>       0.00416667</v>
   <v>       0.00416667</v>
   <v>       0.00416667</v>
   <v>       0.00416667</v>
   <v>       0.00416667</v>
   <v>       0.00416667</v>
   <v>       0.00416667</v>
   <v>       0.00416667</v>
   <v>       0.00416667</v>
   <v>       0.00416667</v>
   <v>       0.00416667</v>
   <v>       0.00416667</v>
   <v>       0.00416667</v>
   <v>       0.00416667</v>
   <v>       0.00416667</v>
   <v>       0.00416667</v>
   <v>       0.00416667</v>
   <v>       0.00416667</v>
   <v>       0.00416667</v>
   <v>       0.00416667</v>
   <v>       0.00416667</v>
   <v>       0.00416667</v>
   <v>       0.00416667</v>
   <v>       0.00416667</v>
   <v>       0.00416667</v>
   <v>       0.00416667</v>
   <v>       0.00416667</v>
   <v>       0.00416667</v>
   <v>       0.00416667</v>
   <v>       0.00416667</v>
   <v>       0.00416667</v>
   <v>       0.00416667</v>
   <v>       0.00416667</v>
   <v>       0.00416667</v>
   <v>       0.00416667</v>
   <v>       0.00416667</v>
   <v>       0.00416667</v>
   <v>       0.00416667</v>
   <v>       0.00416667</v>
   <v>       0.00416667</v>
   <v>       0.00416667</v>
   <v>       0.00416667</v>
   <v>       0.00416667</v>
   <v>       0.00416667</v>
   <v>       0.00416667</v>
   <v>       0.00416667</v>
   <v>       0.00416667</v>
   <v>       0.00416667</v>
   <v>       0.00416667</v>
   <v>       0.00416667</v>
  </varray>
 </kpoints>
 <parameters>
  <separator name="general" >
   <i type="string" name="SYSTEM">unknown system</i>
   <i type="logical" name="LCOMPAT"> F  </i>
  </separator>
  <separator name="electronic" >
   <i type="string" name="PREC">medium</i>
   <i name="ENMAX">    273.24600000</i>
   <i name="ENAUG">    516.45600000</i>
   <i name="EDIFF">      0.00010000</i>
   <i type="int" name="IALGO">    38</i>
   <i type="int" name="IWAVPR">    10</i>
   <i type="int" name="NBANDS">     9</i>
   <i name="NELECT">     11.00000000</i>
   <separator name="electronic smearing" >
    <i type="int" name="ISMEAR">     0</i>
    <i name="SIGMA">      0.01000000</i>
   </separator>
   <separator name="electronic projectors" >
    <i type="logical" name="LREAL"> F  </i>
    <v name="ROPT">      0.00000000</v>
    <i type="int" name="LMAXPAW">  -100</i>
    <i type="int" name="LMAXMIX">     2</i>
   </separator>
   <separator name="electronic startup" >
    <i type="int" name="ISTART">     1</i>
    <i type="int" name="ICHARG">     0</i>
    <i type="int" name="INIWAV">     1</i>
   </separator>
   <separator name="electronic spin" >
    <i type="int" name="ISPIN">     1</i>
    <i type="logical" name="LNONCOLLINEAR"> F  </i>
    <v name="MAGMOM">      1.00000000</v>
    <i name="NUPDOWN">     -1.00000000</i>
    <i type="logical" name="LSORBIT"> F  </i>
    <v name="SAXIS">      0.00000000      0.00000000      1.00000000</v>
    <i type="logical" name="LSPIRAL"> F  </i>
    <v name="QSPIRAL">      0.00000000      0.00000000      0.00000000</v>
    <i type="logical" name="LZEROZ"> F  </i>
   </separator>
   <separator name="electronic exchange-correlation" >
    <i type="string" name="GGA">--</i>
    <i type="int" name="VOSKOWN">     0</i>
    <i type="logical" name="LASPH"> F  </i>
    <i type="logical" name="LMETAGGA"> F  </i>
    <i type="string" name="GGA2">--</i>
   </separator>
   <separator name="electronic convergence" >
    <i type="int" name="NELM">    60</i>
    <i type="int" name="NELMDL">     0</i>
    <i type="int" name="NELMIN">     2</i>
    <i name="ENINI">    273.24600000</i>
    <separator name="electronic convergence detail" >
     <i type="logical" name="LDIAG"> T  </i>
     <i name="WEIMIN">      0.00000000</i>
     <i name="EBREAK">      0.00000278</i>
     <i name="DEPER">      0.30000000</i>
     <i type="int" name="NRMM">     4</i>
     <i name="TIME">      0.10000000</i>
    </separator>
   </separator>
   <separator name="electronic mixer" >
    <i name="AMIX">      0.40000000</i>
    <i name="BMIX">      1.00000000</i>
    <i name="AMIN">      0.10000000</i>
    <i name="AMIX_MAG">      1.60000000</i>
    <i name="BMIX_MAG">      1.00000000</i>
    <separator name="electronic mixer details" >
     <i type="int" name="IMIX">     4</i>
     <i type="int" name="MAXMIX">   -45</i>
     <i name="WC">    100.00000000</i>
     <i type="int" name="INIMIX">     1</i>
     <i type="int" name="MIXPRE">     1</i>
     <i type="int" name="MREMOVE">     5</i>
    </separator>
   </separator>
   <separator name="electronic dipolcorrection" >
    <i type="int" name="IDIPOL">     0</i>
    <i type="logical" name="LDIPOL"> F  </i>
    <v name="DIPOL">   -100.00000000</v>
    <i name="EFIELD">      0.00000000</i>
   </separator>
  </separator>
  <separator name="grids" >
   <i type="int" name="NGX">    10</i>
   <i type="int" name="NGY">    10</i>
   <i type="int" name="NGZ">    10</i>
   <i type="int" name="NGXF">    18</i>
   <i type="int" name="NGYF">    18</i>
   <i type="int" name="NGZF">    18</i>
   <i type="logical" name="ADDGRID"> F  </i>
  </separator>
  <separator name="ionic" >
   <i type="int" name="NSW">     0</i>
   <i type="int" name="IBRION">    -1</i>
   <i type="int" name="ISIF">     2</i>
   <i name="PSTRESS">      0.00000000</i>
   <i name="EDIFFG">      0.00100000</i>
   <i type="int" name="NFREE">     0</i>
   <i name="POTIM">      0.50000000</i>
   <i name="SMASS">     -3.00000000</i>
  </separator>
  <separator name="ionic md" >
   <i name="TEBEG">      0.00010000</i>
   <i name="TEEND">      0.00010000</i>
   <i type="int" name="NBLOCK">     1</i>
   <i type="int" name="KBLOCK">     1</i>
   <i type="int" name="NPACO">   256</i>
   <i name="APACO">     16.00000000</i>
  </separator>
  <separator name="symmetry" >
   <i type="int" name="ISYM">     2</i>
   <i name="SYMPREC">      0.00001000</i>
  </separator>
  <separator name="dos" >
   <i type="logical" name="LORBIT"> F  </i>
   <v name="RWIGS">     -1.00000000</v>
   <i type="int" name="NEDOS">   301</i>
   <i name="EMIN">     10.00000000</i>
   <i name="EMAX">    -10.00000000</i>
  </separator>
  <separator name="writing" >
   <i type="int" name="NWRITE">     2</i>
   <i type="logical" name="LWAVE"> T  </i>
   <i type="logical" name="LCHARG"> T  </i>
   <i type="logical" name="LPARD"> F  </i>
   <i type="logical" name="LVTOT"> F  </i>
   <i type="logical" name="LELF"> F  </i>
   <i type="logical" name="LOPTICS"> F  </i>
   <i name="STM">      0.00000000</i>
  </separator>
  <separator name="performance" >
   <i type="int" name="NPAR">     4</i>
   <i type="int" name="NSIM">     4</i>
   <i type="int" name="NBLK">    32</i>
   <i type="logical" name="LPLANE"> T  </i>
   <i type="logical" name="LCRITICAL_MEM"> F  </i>
   <i type="logical" name="LSCALAPACK"> F  </i>
   <i type="logical" name="LSCALU"> F  </i>
   <i type="logical" name="LASYNC"> F  </i>
  </separator>
  <separator name="miscellaneous" >
   <i type="int" name="IDIOT">     3</i>
   <i type="logical" name="LMUSIC"> F  </i>
   <v name="POMASS">     63.54600000</v>
   <i type="logical" name="LCORR"> T  </i>
  </separator>
  <i type="logical" name="LREAL_COMPAT"> F  </i>
  <i type="logical" name="GGA_COMPAT"> T  </i>
  <i type="logical" name="LBERRY"> F  </i>
  <i type="int" name="ICORELEVEL">     0</i>
  <i type="logical" name="LDAU"> F  </i>
  <i type="int" name="I_CONSTRAINED_M">     0</i>
 </parameters>
 <atominfo>
  <atoms>       1</atoms>
  <types>       1</types>
  <array name="atoms" >
   <dimension dim="1">ion</dimension>
   <field type="string">element</field>
   <field type="int">atomtype</field>
   <set>
    <rc><c>Cu</c><c>   1</c></rc>
   </set>
  </array>
  <array name="atomtypes" >
   <dimension dim="1">type</dimension>
   <field type="int">atomspertype</field>
   <field type="string">element</field>
   <field>mass</field>
   <field>valence</field>
   <field type="string">pseudopotential</field>
   <set>
    <rc><c>   1</c><c>Cu</c><c>     63.54600000</c><c>     11.00000000</c><c> PAW_GGA Cu 05Jan2001                   </c></rc>
   </set>
  </array>
 </atominfo>
 <structure name="initialpos" >
  <crystal>
   <varray name="basis" >
    <v>       1.81000000      1.81000000      0.00000000</v>
    <v>       0.00000000      1.81000000      1.81000000</v>
    <v>       1.81000000      0.00000000      1.81000000</v>
   </varray>
   <i name="volume">     11.85948200</i>
   <varray name="rec_basis" >
    <v>       0.27624309      0.27624309     -0.27624309</v>
    <v>      -0.27624309      0.27624309      0.27624309</v>
    <v>       0.27624309     -0.27624309      0.27624309</v>
   </varray>
  </crystal>
  <varray name="positions" >
   <v>       0.00000000      0.00000000      0.00000000</v>
  </varray>
 </structure>
 <calculation>
  <scstep>
   <time name="dav">    0.74    0.76</time>
   <time name="total">    0.76    0.77</time>
   <energy>
    <i name="alphaZ">    107.26033312</i>
    <i name="ewald">  -1103.39027675</i>
    <i name="hartreedc">   -285.06339115</i>
    <i name="XCdc">     43.39506976</i>
    <i name="pawpsdc">   1021.11562088</i>
    <i name="pawaedc">  -1181.64610224</i>
    <i name="eentropy">     -0.00000027</i>
    <i name="bandstr">      8.74305231</i>
    <i name="atom">   1393.03119264</i>
    <i name="e_fr_energy">      3.44549830</i>
    <i name="e_wo_entrp">      3.44549856</i>
    <i name="e_0_energy">      3.44549843</i>
   </energy>
  </scstep>
  <scstep>
   <time name="dav">    0.56    0.56</time>
   <time name="total">    0.57    0.57</time>
   <energy>
    <i name="e_fr_energy">     -4.22834769</i>
    <i name="e_wo_entrp">     -4.22834769</i>
    <i name="e_0_energy">     -4.22834769</i>
   </energy>
  </scstep>
  <scstep>
   <time name="dav">    0.60    0.60</time>
   <time name="total">    0.61    0.61</time>
   <energy>
    <i name="e_fr_energy">     -4.54139458</i>
    <i name="e_wo_entrp">     -4.54139458</i>
    <i name="e_0_energy">     -4.54139458</i>
   </energy>
  </scstep>
  <scstep>
   <time name="dav">    0.58    0.58</time>
   <time name="total">    0.59    0.59</time>
   <energy>
    <i name="e_fr_energy">     -4.23988990</i>
    <i name="e_wo_entrp">     -4.23988985</i>
    <i name="e_0_energy">     -4.23988987</i>
   </energy>
  </scstep>
  <scstep>
   <time name="dav">    0.58    0.58</time>
   <time name="total">    0.59    0.59</time>
   <energy>
    <i name="e_fr_energy">     -4.23272205</i>
    <i name="e_wo_entrp">     -4.23272205</i>
    <i name="e_0_energy">     -4.23272205</i>
   </energy>
  </scstep>
  <scstep>
   <time name="dav">    0.57    0.57</time>
   <time name="total">    0.58    0.58</time>
   <energy>
    <i name="e_fr_energy">     -4.22633812</i>
    <i name="e_wo_entrp">     -4.22633812</i>
    <i name="e_0_energy">     -4.22633812</i>
   </energy>
  </scstep>
  <scstep>
   <time name="dav">    0.44    0.45</time>
   <time name="total">    0.45    0.45</time>
   <energy>
    <i name="alphaZ">    107.26033312</i>
    <i name="ewald">  -1103.39027675</i>
    <i name="hartreedc">   -309.35667837</i>
    <i name="XCdc">     42.83982190</i>
    <i name="pawpsdc">   1108.28108756</i>
    <i name="pawaedc">  -1253.62778977</i>
    <i name="eentropy">     -0.00000000</i>
    <i name="bandstr">     10.73597444</i>
    <i name="atom">   1393.03119264</i>
    <i name="e_fr_energy">     -4.22633524</i>
    <i name="e_wo_entrp">     -4.22633524</i>
    <i name="e_0_energy">     -4.22633524</i>
   </energy>
  </scstep>
  <structure>
   <crystal>
    <varray name="basis" >
     <v>       1.81000000      1.81000000      0.00000000</v>
     <v>       0.00000000      1.81000000      1.81000000</v>
     <v>       1.81000000      0.00000000      1.81000000</v>
    </varray>
    <i name="volume">     11.85948200</i>
    <varray name="rec_basis" >
     <v>       0.27624309      0.27624309     -0.27624309</v>
     <v>      -0.27624309      0.27624309      0.27624309</v>
     <v>       0.27624309     -0.27624309      0.27624309</v>
    </varray>
   </crystal>
   <varray name="positions" >
    <v>       0.00000000      0.00000000      0.00000000</v>
   </varray>
  </structure>
  <varray name="forces" >
   <v>      -0.00000000     -0.00000000      0.00000000</v>
  </varray>
  <varray name="stress" >
   <v>      22.71270887     -0.00000000     -0.00000000</v>
   <v>      -0.00000000     22.71270887      0.00000000</v>
   <v>       0.00000000     -0.00000000     22.71270887</v>
  </varray>
  <energy>
   <i name="e_fr_energy">     -4.22633524</i>
   <i name="e_wo_entrp">     -4.22633524</i>
   <i name="e_0_energy">     -0.00000000</i>
  </energy>
  <eigenvalues>
   <array>
    <dimension dim="1">band</dimension>
    <dimension dim="2">kpoint</dimension>
    <dimension dim="3">spin</dimension>
    <field>eigene</field>
    <field>occ</field>
    <set>
     <set comment="spin 1">
      <set comment="kpoint 1">
       <r>  -5.5297  1.0000</r>
       <r>   1.0655  1.0000</r>
       <r>   1.0655  1.0000</r>
       <r>   1.0655  1.0000</r>
       <r>   1.9064  1.0000</r>
       <r>   1.9064  1.0000</r>
       <r>  26.8868  0.0000</r>
       <r>  29.1586  0.0000</r>
       <r>  29.1589  0.0000</r>
       <r>  29.1589  0.0000</r>
       <r>  31.9928  0.0000</r>
       <r>  31.9931  0.0000</r>
      </set>
      <set comment="kpoint 2">
       <r>  -5.5217  1.0000</r>
       <r>   1.0626  1.0000</r>
       <r>   1.0660  1.0000</r>
       <r>   1.0660  1.0000</r>
       <r>   1.9028  1.0000</r>
       <r>   1.9073  1.0000</r>
       <r>  26.8542  0.0000</r>
       <r>  29.0509  0.0000</r>
       <r>  29.0510  0.0000</r>
       <r>  29.1226  0.0000</r>
       <r>  32.0350  0.0000</r>
       <r>  32.0693  0.0000</r>
      </set>
      <set comment="kpoint 3">
       <r>  -5.4978  1.0000</r>
       <r>   1.0524  1.0000</r>
       <r>   1.0699  1.0000</r>
       <r>   1.0699  1.0000</r>
       <r>   1.8953  1.0000</r>
       <r>   1.9079  1.0000</r>
       <r>  26.7596  0.0000</r>
       <r>  28.7641  0.0000</r>
       <r>  28.7643  0.0000</r>
       <r>  29.0172  0.0000</r>
       <r>  32.1087  0.0000</r>
       <r>  32.3297  0.0000</r>
      </set>
      <set comment="kpoint 4">
       <r>  -5.4579  1.0000</r>
       <r>   1.0400  1.0000</r>
       <r>   1.0793  1.0000</r>
       <r>   1.0794  1.0000</r>
       <r>   1.8842  1.0000</r>
       <r>   1.9122  1.0000</r>
       <r>  26.6120  0.0000</r>
       <r>  28.3735  0.0000</r>
       <r>  28.3736  0.0000</r>
       <r>  28.8521  0.0000</r>
       <r>  32.3401  0.0000</r>
       <r>  32.7446  0.0000</r>
      </set>
      <set comment="kpoint 5">
       <r>  -5.4022  1.0000</r>
       <r>   1.0228  1.0000</r>
       <r>   1.0926  1.0000</r>
       <r>   1.0926  1.0000</r>
       <r>   1.8688  1.0000</r>
       <r>   1.9182  1.0000</r>
       <r>  26.4241  0.0000</r>
       <r>  27.9293  0.0000</r>
       <r>  27.9294  0.0000</r>
       <r>  28.6386  0.0000</r>
       <r>  32.6465  0.0000</r>
       <r>  33.2232  0.0000</r>
      </set>
      <set comment="kpoint 6">
       <r>  -5.3307  1.0000</r>
       <r>   1.0011  1.0000</r>
       <r>   1.1097  1.0000</r>
       <r>   1.1098  1.0000</r>
       <r>   1.8494  1.0000</r>
       <r>   1.9260  1.0000</r>
       <r>  26.2079  0.0000</r>
       <r>  27.4586  0.0000</r>
       <r>  27.4587  0.0000</r>
       <r>  28.3887  0.0000</r>
       <r>  33.0156  0.0000</r>
       <r>  33.7379  0.0000</r>
      </set>
      <set comment="kpoint 7">
       <r>  -5.2437  1.0000</r>
       <r>   0.9750  1.0000</r>
       <r>   1.1307  1.0000</r>
       <r>   1.1307  1.0000</r>
       <r>   1.8262  1.0000</r>
       <r>   1.9354  1.0000</r>
       <r>  25.9737  0.0000</r>
       <r>  26.9758  0.0000</r>
       <r>  26.9759  0.0000</r>
       <r>  28.1126  0.0000</r>
       <r>  33.4369  0.0000</r>
       <r>  34.2736  0.0000</r>
      </set>
      <set comment="kpoint 8">
       <r>  -5.1412  1.0000</r>
       <r>   0.9446  1.0000</r>
       <r>   1.1553  1.0000</r>
       <r>   1.1554  1.0000</r>
       <r>   1.7994  1.0000</r>
       <r>   1.9465  1.0000</r>
       <r>  25.7295  0.0000</r>
       <r>  26.4886  0.0000</r>
       <r>  26.4887  0.0000</r>
       <r>  27.8186  0.0000</r>
       <r>  33.9023  0.0000</r>
       <r>  34.1551  0.0000</r>
      </set>
      <set comment="kpoint 9">
       <r>  -5.0236  1.0000</r>
       <r>   0.9101  1.0000</r>
       <r>   1.1837  1.0000</r>
       <r>   1.1837  1.0000</r>
       <r>   1.7694  1.0000</r>
       <r>   1.9590  1.0000</r>
       <r>  25.4811  0.0000</r>
       <r>  26.0018  0.0000</r>
       <r>  26.0019  0.0000</r>
       <r>  27.5125  0.0000</r>
       <r>  33.3740  0.0000</r>
       <r>  34.4057  0.0000</r>
      </set>
      <set comment="kpoint 10">
       <r>  -4.8911  1.0000</r>
       <r>   0.8720  1.0000</r>
       <r>   1.2156  1.0000</r>
       <r>   1.2156  1.0000</r>
       <r>   1.7366  1.0000</r>
       <r>   1.9731  1.0000</r>
       <r>  25.2329  0.0000</r>
       <r>  25.5182  0.0000</r>
       <r>  25.5183  0.0000</r>
       <r>  27.1981  0.0000</r>
       <r>  32.5504  0.0000</r>
       <r>  34.9424  0.0000</r>
      </set>
      <set comment="kpoint 11">
       <r>  -4.7441  1.0000</r>
       <r>   0.8303  1.0000</r>
       <r>   1.2511  1.0000</r>
       <r>   1.2511  1.0000</r>
       <r>   1.7015  1.0000</r>
       <r>   1.9884  1.0000</r>
       <r>  24.9879  0.0000</r>
       <r>  25.0398  0.0000</r>
       <r>  25.0399  0.0000</r>
       <r>  26.8768  0.0000</r>
       <r>  31.7136  0.0000</r>
       <r>  35.5090  0.0000</r>
      </set>
      <set comment="kpoint 12">
       <r>  -4.5829  1.0000</r>
       <r>   0.7855  1.0000</r>
       <r>   1.2900  1.0000</r>
       <r>   1.2900  1.0000</r>
       <r>   1.6645  1.0000</r>
       <r>   2.0051  1.0000</r>
       <r>  24.5680  0.0000</r>
       <r>  24.5681  0.0000</r>
       <r>  24.7484  0.0000</r>
       <r>  26.5481  0.0000</r>
       <r>  30.8806  0.0000</r>
       <r>  36.1031  0.0000</r>
      </set>
      <set comment="kpoint 13">
       <r>  -4.4082  1.0000</r>
       <r>   0.7378  1.0000</r>
       <r>   1.3322  1.0000</r>
       <r>   1.3323  1.0000</r>
       <r>   1.6265  1.0000</r>
       <r>   2.0229  1.0000</r>
       <r>  24.1040  0.0000</r>
       <r>  24.1041  0.0000</r>
       <r>  24.5158  0.0000</r>
       <r>  26.2085  0.0000</r>
       <r>  30.0645  0.0000</r>
       <r>  36.7225  0.0000</r>
      </set>
      <set comment="kpoint 14">
       <r>  -4.2206  1.0000</r>
       <r>   0.6876  1.0000</r>
       <r>   1.3771  1.0000</r>
       <r>   1.3772  1.0000</r>
       <r>   1.5843  1.0000</r>
       <r>   2.0418  1.0000</r>
       <r>  23.6463  0.0000</r>
       <r>  23.6464  0.0000</r>
       <r>  24.2912  0.0000</r>
       <r>  25.8411  0.0000</r>
       <r>  29.2721  0.0000</r>
       <r>  37.3656  0.0000</r>
      </set>
      <set comment="kpoint 15">
       <r>  -4.0206  1.0000</r>
       <r>   0.6352  1.0000</r>
       <r>   1.4254  1.0000</r>
       <r>   1.4255  1.0000</r>
       <r>   1.5458  1.0000</r>
       <r>   2.0617  1.0000</r>
       <r>  23.2003  0.0000</r>
       <r>  23.2004  0.0000</r>
       <r>  24.0756  0.0000</r>
       <r>  25.4524  0.0000</r>
       <r>  28.5321  0.0000</r>
       <r>  38.0318  0.0000</r>
      </set>
      <set comment="kpoint 16">
       <r>  -3.8094  1.0000</r>
       <r>   0.5810  1.0000</r>
       <r>   1.4766  1.0000</r>
       <r>   1.4766  1.0000</r>
       <r>   1.5090  1.0000</r>
       <r>   2.0823  1.0000</r>
       <r>  22.7643  0.0000</r>
       <r>  22.7644  0.0000</r>
       <r>  23.8694  0.0000</r>
       <r>  25.0195  0.0000</r>
       <r>  27.8551  0.0000</r>
       <r>  38.7199  0.0000</r>
      </set>
      <set comment="kpoint 17">
       <r>  -3.5882  1.0000</r>
       <r>   0.5254  1.0000</r>
       <r>   1.4753  1.0000</r>
       <r>   1.5303  1.0000</r>
       <r>   1.5304  1.0000</r>
       <r>   2.1036  1.0000</r>
       <r>  22.3390  0.0000</r>
       <r>  22.3391  0.0000</r>
       <r>  23.6728  0.0000</r>
       <r>  24.5269  0.0000</r>
       <r>  27.2585  0.0000</r>
       <r>  39.4293  0.0000</r>
      </set>
      <set comment="kpoint 18">
       <r>  -3.3582  1.0000</r>
       <r>   0.4688  1.0000</r>
       <r>   1.4461  1.0000</r>
       <r>   1.5865  1.0000</r>
       <r>   1.5865  1.0000</r>
       <r>   2.1255  1.0000</r>
       <r>  21.9249  0.0000</r>
       <r>  21.9250  0.0000</r>
       <r>  23.4860  0.0000</r>
       <r>  23.9659  0.0000</r>
       <r>  26.7526  0.0000</r>
       <r>  40.1603  0.0000</r>
      </set>
      <set comment="kpoint 19">
       <r>  -3.1213  1.0000</r>
       <r>   0.4114  1.0000</r>
       <r>   1.4256  1.0000</r>
       <r>   1.6458  1.0000</r>
       <r>   1.6458  1.0000</r>
       <r>   2.1479  1.0000</r>
       <r>  21.5257  0.0000</r>
       <r>  21.5258  0.0000</r>
       <r>  23.3091  0.0000</r>
       <r>  23.3579  0.0000</r>
       <r>  26.3345  0.0000</r>
       <r>  40.7167  0.0000</r>
      </set>
      <set comment="kpoint 20">
       <r>  -2.8799  1.0000</r>
       <r>   0.3538  1.0000</r>
       <r>   1.4118  1.0000</r>
       <r>   1.7058  1.0000</r>
       <r>   1.7058  1.0000</r>
       <r>   2.1704  1.0000</r>
       <r>  21.1354  0.0000</r>
       <r>  21.1355  0.0000</r>
       <r>  22.6798  0.0000</r>
       <r>  23.1421  0.0000</r>
       <r>  25.9916  0.0000</r>
       <r>  41.2171  0.0000</r>
      </set>
      <set comment="kpoint 21">
       <r>  -2.6368  1.0000</r>
       <r>   0.2963  1.0000</r>
       <r>   1.4100  1.0000</r>
       <r>   1.7674  1.0000</r>
       <r>   1.7675  1.0000</r>
       <r>   2.1930  1.0000</r>
       <r>  20.7582  0.0000</r>
       <r>  20.7583  0.0000</r>
       <r>  21.9673  0.0000</r>
       <r>  22.9849  0.0000</r>
       <r>  25.7076  0.0000</r>
       <r>  41.7174  0.0000</r>
      </set>
      <set comment="kpoint 22">
       <r>  -2.3955  1.0000</r>
       <r>   0.2392  1.0000</r>
       <r>   1.4239  1.0000</r>
       <r>   1.8303  1.0000</r>
       <r>   1.8304  1.0000</r>
       <r>   2.2156  1.0000</r>
       <r>  20.3946  0.0000</r>
       <r>  20.3948  0.0000</r>
       <r>  21.2346  0.0000</r>
       <r>  22.8374  0.0000</r>
       <r>  25.4687  0.0000</r>
       <r>  42.2186  0.0000</r>
      </set>
      <set comment="kpoint 23">
       <r>  -2.1603  1.0000</r>
       <r>   0.1830  1.0000</r>
       <r>   1.4579  1.0000</r>
       <r>   1.8941  1.0000</r>
       <r>   1.8941  1.0000</r>
       <r>   2.2381  1.0000</r>
       <r>  20.0453  0.0000</r>
       <r>  20.0454  0.0000</r>
       <r>  20.4925  0.0000</r>
       <r>  22.6995  0.0000</r>
       <r>  25.2645  0.0000</r>
       <r>  42.7224  0.0000</r>
      </set>
      <set comment="kpoint 24">
       <r>  -1.9361  1.0000</r>
       <r>   0.1280  1.0000</r>
       <r>   1.5167  1.0000</r>
       <r>   1.9583  1.0000</r>
       <r>   1.9583  1.0000</r>
       <r>   2.2602  1.0000</r>
       <r>  19.7107  0.0000</r>
       <r>  19.7108  0.0000</r>
       <r>  19.7483  0.0000</r>
       <r>  22.5709  0.0000</r>
       <r>  25.0879  0.0000</r>
       <r>  43.2302  0.0000</r>
      </set>
      <set comment="kpoint 25">
       <r>  -1.7283  1.0000</r>
       <r>   0.0731  1.0000</r>
       <r>   1.6055  1.0000</r>
       <r>   2.0208  1.0000</r>
       <r>   2.0208  1.0000</r>
       <r>   2.2819  1.0000</r>
       <r>  19.0069  0.0000</r>
       <r>  19.3904  0.0000</r>
       <r>  19.3905  0.0000</r>
       <r>  22.4316  0.0000</r>
       <r>  24.9340  0.0000</r>
       <r>  43.7439  0.0000</r>
      </set>
      <set comment="kpoint 26">
       <r>  -1.5419  1.0000</r>
       <r>   0.0212  1.0000</r>
       <r>   1.7292  1.0000</r>
       <r>   2.0844  1.0000</r>
       <r>   2.0844  1.0000</r>
       <r>   2.3029  1.0000</r>
       <r>  18.2727  0.0000</r>
       <r>  19.0875  0.0000</r>
       <r>  19.0877  0.0000</r>
       <r>  22.3199  0.0000</r>
       <r>  24.7992  0.0000</r>
       <r>  44.2645  0.0000</r>
      </set>
      <set comment="kpoint 27">
       <r>  -1.3807  1.0000</r>
       <r>  -0.0284  1.0000</r>
       <r>   1.8911  1.0000</r>
       <r>   2.1470  1.0000</r>
       <r>   2.1471  1.0000</r>
       <r>   2.3232  1.0000</r>
       <r>  17.5485  0.0000</r>
       <r>  18.8014  0.0000</r>
       <r>  18.8016  0.0000</r>
       <r>  22.2168  0.0000</r>
       <r>  24.6809  0.0000</r>
       <r>  44.7929  0.0000</r>
      </set>
      <set comment="kpoint 28">
       <r>  -1.2469  1.0000</r>
       <r>  -0.0757  1.0000</r>
       <r>   2.0926  1.0000</r>
       <r>   2.2082  1.0000</r>
       <r>   2.2082  1.0000</r>
       <r>   2.3426  1.0000</r>
       <r>  16.8370  0.0000</r>
       <r>  18.5327  0.0000</r>
       <r>  18.5329  0.0000</r>
       <r>  22.1224  0.0000</r>
       <r>  24.5771  0.0000</r>
       <r>  45.3301  0.0000</r>
      </set>
      <set comment="kpoint 29">
       <r>  -1.1399  1.0000</r>
       <r>  -0.1200  1.0000</r>
       <r>   2.2716  1.0000</r>
       <r>   2.2716  1.0000</r>
       <r>   2.3330  1.0000</r>
       <r>   2.3620  1.0000</r>
       <r>  16.1453  0.0000</r>
       <r>  18.2850  0.0000</r>
       <r>  18.2851  0.0000</r>
       <r>  22.0417  0.0000</r>
       <r>  24.4897  0.0000</r>
       <r>  45.8847  0.0000</r>
      </set>
      <set comment="kpoint 30">
       <r>  -1.0577  1.0000</r>
       <r>  -0.1616  1.0000</r>
       <r>   2.3276  1.0000</r>
       <r>   2.3276  1.0000</r>
       <r>   2.3791  1.0000</r>
       <r>   2.6073  1.0000</r>
       <r>  15.4661  0.0000</r>
       <r>  18.0526  0.0000</r>
       <r>  18.0527  0.0000</r>
       <r>  21.9634  0.0000</r>
       <r>  24.4107  0.0000</r>
       <r>  46.2568  0.0000</r>
      </set>
      <set comment="kpoint 31">
       <r>  -0.9968  1.0000</r>
       <r>  -0.1999  1.0000</r>
       <r>   2.3805  1.0000</r>
       <r>   2.3806  1.0000</r>
       <r>   2.3950  1.0000</r>
       <r>   2.9106  1.0000</r>
       <r>  14.8076  0.0000</r>
       <r>  17.8397  0.0000</r>
       <r>  17.8398  0.0000</r>
       <r>  21.8931  0.0000</r>
       <r>  24.3421  0.0000</r>
       <r>  46.3668  0.0000</r>
      </set>
      <set comment="kpoint 32">
       <r>  -0.9531  1.0000</r>
       <r>  -0.2348  1.0000</r>
       <r>   2.4117  1.0000</r>
       <r>   2.4319  1.0000</r>
       <r>   2.4319  1.0000</r>
       <r>   3.2363  1.0000</r>
       <r>  14.1732  0.0000</r>
       <r>  17.6478  0.0000</r>
       <r>  17.6479  0.0000</r>
       <r>  21.8307  0.0000</r>
       <r>  24.2831  0.0000</r>
       <r>  46.5445  0.0000</r>
      </set>
      <set comment="kpoint 33">
       <r>  -0.9228  1.0000</r>
       <r>  -0.2661  1.0000</r>
       <r>   2.4246  1.0000</r>
       <r>   2.4768  1.0000</r>
       <r>   2.4768  1.0000</r>
       <r>   3.5764  1.0000</r>
       <r>  13.5676  0.0000</r>
       <r>  17.4759  0.0000</r>
       <r>  17.4760  0.0000</r>
       <r>  21.7760  0.0000</r>
       <r>  24.2329  0.0000</r>
       <r>  46.6690  0.0000</r>
      </set>
      <set comment="kpoint 34">
       <r>  -0.9025  1.0000</r>
       <r>  -0.2935  1.0000</r>
       <r>   2.4359  1.0000</r>
       <r>   2.5169  1.0000</r>
       <r>   2.5169  1.0000</r>
       <r>   3.9220  1.0000</r>
       <r>  12.9969  0.0000</r>
       <r>  17.3255  0.0000</r>
       <r>  17.3256  0.0000</r>
       <r>  21.7288  0.0000</r>
       <r>  24.1907  0.0000</r>
       <r>  46.8042  0.0000</r>
      </set>
      <set comment="kpoint 35">
       <r>  -0.8894  1.0000</r>
       <r>  -0.3170  1.0000</r>
       <r>   2.4456  1.0000</r>
       <r>   2.5518  1.0000</r>
       <r>   2.5518  1.0000</r>
       <r>   4.2624  1.0000</r>
       <r>  12.4696  0.0000</r>
       <r>  17.1972  0.0000</r>
       <r>  17.1974  0.0000</r>
       <r>  21.6892  0.0000</r>
       <r>  24.1560  0.0000</r>
       <r>  49.1805  0.0000</r>
      </set>
      <set comment="kpoint 36">
       <r>  -0.8810  1.0000</r>
       <r>  -0.3364  1.0000</r>
       <r>   2.4537  1.0000</r>
       <r>   2.5810  1.0000</r>
       <r>   2.5810  1.0000</r>
       <r>   4.5843  1.0000</r>
       <r>  12.0004  0.0000</r>
       <r>  17.0916  0.0000</r>
       <r>  17.0917  0.0000</r>
       <r>  21.6568  0.0000</r>
       <r>  24.1336  0.0000</r>
       <r>  50.0061  0.0000</r>
      </set>
      <set comment="kpoint 37">
       <r>  -0.8764  1.0000</r>
       <r>  -0.3516  1.0000</r>
       <r>   2.4600  1.0000</r>
       <r>   2.6042  1.0000</r>
       <r>   2.6042  1.0000</r>
       <r>   4.8704  0.0000</r>
       <r>  11.5980  0.0000</r>
       <r>  17.0089  0.0000</r>
       <r>  17.0090  0.0000</r>
       <r>  21.6318  0.0000</r>
       <r>  24.1123  0.0000</r>
       <r>  47.1082  0.0000</r>
      </set>
      <set comment="kpoint 38">
       <r>  -0.8739  1.0000</r>
       <r>  -0.3625  1.0000</r>
       <r>   2.4645  1.0000</r>
       <r>   2.6209  1.0000</r>
       <r>   2.6210  1.0000</r>
       <r>   5.1001  0.0000</r>
       <r>  11.2859  0.0000</r>
       <r>  16.9496  0.0000</r>
       <r>  16.9497  0.0000</r>
       <r>  21.6139  0.0000</r>
       <r>  24.0973  0.0000</r>
       <r>  47.1705  0.0000</r>
      </set>
      <set comment="kpoint 39">
       <r>  -0.8728  1.0000</r>
       <r>  -0.3691  1.0000</r>
       <r>   2.4673  1.0000</r>
       <r>   2.6311  1.0000</r>
       <r>   2.6311  1.0000</r>
       <r>   5.2508  0.0000</r>
       <r>  11.0860  0.0000</r>
       <r>  16.9139  0.0000</r>
       <r>  16.9140  0.0000</r>
       <r>  21.6032  0.0000</r>
       <r>  24.0884  0.0000</r>
       <r>  47.2089  0.0000</r>
      </set>
      <set comment="kpoint 40">
       <r>  -0.8724  1.0000</r>
       <r>  -0.3712  1.0000</r>
       <r>   2.4682  1.0000</r>
       <r>   2.6345  1.0000</r>
       <r>   2.6345  1.0000</r>
       <r>   5.3036  0.0000</r>
       <r>  11.0169  0.0000</r>
       <r>  16.9020  0.0000</r>
       <r>  16.9021  0.0000</r>
       <r>  21.5997  0.0000</r>
       <r>  24.0854  0.0000</r>
       <r>  47.2218  0.0000</r>
      </set>
      <set comment="kpoint 41">
       <r>  -0.8724  1.0000</r>
       <r>  -0.3712  1.0000</r>
       <r>   2.4682  1.0000</r>
       <r>   2.6345  1.0000</r>
       <r>   2.6345  1.0000</r>
       <r>   5.3036  0.0000</r>
       <r>  11.0169  0.0000</r>
       <r>  16.9020  0.0000</r>
       <r>  16.9021  0.0000</r>
       <r>  21.5997  0.0000</r>
       <r>  24.0854  0.0000</r>
       <r>  47.2218  0.0000</r>
      </set>
      <set comment="kpoint 42">
       <r>  -0.8715  1.0000</r>
       <r>  -0.3707  1.0000</r>
       <r>   2.4675  1.0000</r>
       <r>   2.6302  1.0000</r>
       <r>   2.6345  1.0000</r>
       <r>   5.3096  0.0000</r>
       <r>  11.0176  0.0000</r>
       <r>  16.8872  0.0000</r>
       <r>  16.8929  0.0000</r>
       <r>  21.6170  0.0000</r>
       <r>  24.0990  0.0000</r>
       <r>  47.1983  0.0000</r>
      </set>
      <set comment="kpoint 43">
       <r>  -0.8686  1.0000</r>
       <r>  -0.3690  1.0000</r>
       <r>   2.4653  1.0000</r>
       <r>   2.6176  1.0000</r>
       <r>   2.6345  1.0000</r>
       <r>   5.3277  0.0000</r>
       <r>  11.0197  0.0000</r>
       <r>  16.8436  0.0000</r>
       <r>  16.8655  0.0000</r>
       <r>  21.6684  0.0000</r>
       <r>  24.1397  0.0000</r>
       <r>  47.1266  0.0000</r>
      </set>
      <set comment="kpoint 44">
       <r>  -0.8637  1.0000</r>
       <r>  -0.3662  1.0000</r>
       <r>   2.4617  1.0000</r>
       <r>   2.5969  1.0000</r>
       <r>   2.6345  1.0000</r>
       <r>   5.3573  0.0000</r>
       <r>  11.0233  0.0000</r>
       <r>  16.7730  0.0000</r>
       <r>  16.8206  0.0000</r>
       <r>  21.7522  0.0000</r>
       <r>  24.2068  0.0000</r>
       <r>  47.0045  0.0000</r>
      </set>
      <set comment="kpoint 45">
       <r>  -0.8570  1.0000</r>
       <r>  -0.3623  1.0000</r>
       <r>   2.4567  1.0000</r>
       <r>   2.5686  1.0000</r>
       <r>   2.6345  1.0000</r>
       <r>   5.3981  0.0000</r>
       <r>  11.0282  0.0000</r>
       <r>  16.6779  0.0000</r>
       <r>  16.7593  0.0000</r>
       <r>  21.8655  0.0000</r>
       <r>  24.2992  0.0000</r>
       <r>  46.8297  0.0000</r>
      </set>
      <set comment="kpoint 46">
       <r>  -0.8483  1.0000</r>
       <r>  -0.3573  1.0000</r>
       <r>   2.4503  1.0000</r>
       <r>   2.5335  1.0000</r>
       <r>   2.6345  1.0000</r>
       <r>   5.4493  0.0000</r>
       <r>  11.0346  0.0000</r>
       <r>  16.5615  0.0000</r>
       <r>  16.6827  0.0000</r>
       <r>  22.0055  0.0000</r>
       <r>  24.4156  0.0000</r>
       <r>  46.6021  0.0000</r>
      </set>
      <set comment="kpoint 47">
       <r>  -0.8378  1.0000</r>
       <r>  -0.3511  1.0000</r>
       <r>   2.4424  1.0000</r>
       <r>   2.4922  1.0000</r>
       <r>   2.6346  1.0000</r>
       <r>   5.5102  0.0000</r>
       <r>  11.0424  0.0000</r>
       <r>  16.4269  0.0000</r>
       <r>  16.5925  0.0000</r>
       <r>  22.1690  0.0000</r>
       <r>  24.5545  0.0000</r>
       <r>  46.3250  0.0000</r>
      </set>
      <set comment="kpoint 48">
       <r>  -0.8255  1.0000</r>
       <r>  -0.3439  1.0000</r>
       <r>   2.4332  1.0000</r>
       <r>   2.4456  1.0000</r>
       <r>   2.6346  1.0000</r>
       <r>   5.5800  0.0000</r>
       <r>  11.0517  0.0000</r>
       <r>  16.2771  0.0000</r>
       <r>  16.4902  0.0000</r>
       <r>  22.3528  0.0000</r>
       <r>  24.7144  0.0000</r>
       <r>  46.0046  0.0000</r>
      </set>
      <set comment="kpoint 49">
       <r>  -0.8113  1.0000</r>
       <r>  -0.3355  1.0000</r>
       <r>   2.3944  1.0000</r>
       <r>   2.4227  1.0000</r>
       <r>   2.6346  1.0000</r>
       <r>   5.6580  0.0000</r>
       <r>  11.0624  0.0000</r>
       <r>  16.1148  0.0000</r>
       <r>  16.3774  0.0000</r>
       <r>  22.5544  0.0000</r>
       <r>  24.8934  0.0000</r>
       <r>  45.6488  0.0000</r>
      </set>
      <set comment="kpoint 50">
       <r>  -0.7954  1.0000</r>
       <r>  -0.3259  1.0000</r>
       <r>   2.3393  1.0000</r>
       <r>   2.4107  1.0000</r>
       <r>   2.6346  1.0000</r>
       <r>   5.7434  0.0000</r>
       <r>  11.0747  0.0000</r>
       <r>  15.9425  0.0000</r>
       <r>  16.2558  0.0000</r>
       <r>  22.7713  0.0000</r>
       <r>  25.0901  0.0000</r>
       <r>  45.2655  0.0000</r>
      </set>
      <set comment="kpoint 51">
       <r>  -0.7779  1.0000</r>
       <r>  -0.3153  1.0000</r>
       <r>   2.2810  1.0000</r>
       <r>   2.3975  1.0000</r>
       <r>   2.6347  1.0000</r>
       <r>   5.8356  0.0000</r>
       <r>  11.0885  0.0000</r>
       <r>  15.7620  0.0000</r>
       <r>  16.1267  0.0000</r>
       <r>  23.0016  0.0000</r>
       <r>  25.3029  0.0000</r>
       <r>  44.8616  0.0000</r>
      </set>
      <set comment="kpoint 52">
       <r>  -0.7587  1.0000</r>
       <r>  -0.3034  1.0000</r>
       <r>   2.2201  1.0000</r>
       <r>   2.3830  1.0000</r>
       <r>   2.6347  1.0000</r>
       <r>   5.9340  0.0000</r>
       <r>  11.1039  0.0000</r>
       <r>  15.5750  0.0000</r>
       <r>  15.9916  0.0000</r>
       <r>  23.2436  0.0000</r>
       <r>  25.5303  0.0000</r>
       <r>  44.4426  0.0000</r>
      </set>
      <set comment="kpoint 53">
       <r>  -0.7380  1.0000</r>
       <r>  -0.2905  1.0000</r>
       <r>   2.1552  1.0000</r>
       <r>   2.3663  1.0000</r>
       <r>   2.6347  1.0000</r>
       <r>   6.0372  0.0000</r>
       <r>  11.1209  0.0000</r>
       <r>  15.3830  0.0000</r>
       <r>  15.8516  0.0000</r>
       <r>  23.4959  0.0000</r>
       <r>  25.7710  0.0000</r>
       <r>  44.0079  0.0000</r>
      </set>
      <set comment="kpoint 54">
       <r>  -0.7157  1.0000</r>
       <r>  -0.2764  1.0000</r>
       <r>   2.0905  1.0000</r>
       <r>   2.3493  1.0000</r>
       <r>   2.6348  1.0000</r>
       <r>   6.1462  0.0000</r>
       <r>  11.1395  0.0000</r>
       <r>  15.1870  0.0000</r>
       <r>  15.7081  0.0000</r>
       <r>  23.7575  0.0000</r>
       <r>  26.0237  0.0000</r>
       <r>  43.5700  0.0000</r>
      </set>
      <set comment="kpoint 55">
       <r>  -0.6921  1.0000</r>
       <r>  -0.2611  1.0000</r>
       <r>   2.0246  1.0000</r>
       <r>   2.3312  1.0000</r>
       <r>   2.6348  1.0000</r>
       <r>   6.2600  0.0000</r>
       <r>  11.1598  0.0000</r>
       <r>  14.9881  0.0000</r>
       <r>  15.5620  0.0000</r>
       <r>  24.0273  0.0000</r>
       <r>  26.2875  0.0000</r>
       <r>  43.1270  0.0000</r>
      </set>
      <set comment="kpoint 56">
       <r>  -0.6672  1.0000</r>
       <r>  -0.2447  1.0000</r>
       <r>   1.9579  1.0000</r>
       <r>   2.3120  1.0000</r>
       <r>   2.6349  1.0000</r>
       <r>   6.3780  0.0000</r>
       <r>  11.1819  0.0000</r>
       <r>  14.7868  0.0000</r>
       <r>  15.4142  0.0000</r>
       <r>  24.3047  0.0000</r>
       <r>  26.5613  0.0000</r>
       <r>  42.6808  0.0000</r>
      </set>
      <set comment="kpoint 57">
       <r>  -0.6411  1.0000</r>
       <r>  -0.2271  1.0000</r>
       <r>   1.8906  1.0000</r>
       <r>   2.2918  1.0000</r>
       <r>   2.6349  1.0000</r>
       <r>   6.5002  0.0000</r>
       <r>  11.2057  0.0000</r>
       <r>  14.5840  0.0000</r>
       <r>  15.2655  0.0000</r>
       <r>  24.5890  0.0000</r>
       <r>  26.8442  0.0000</r>
       <r>  42.2328  0.0000</r>
      </set>
      <set comment="kpoint 58">
       <r>  -0.6139  1.0000</r>
       <r>  -0.2083  1.0000</r>
       <r>   1.8230  1.0000</r>
       <r>   2.2706  1.0000</r>
       <r>   2.6350  1.0000</r>
       <r>   6.6261  0.0000</r>
       <r>  11.2313  0.0000</r>
       <r>  14.3800  0.0000</r>
       <r>  15.1166  0.0000</r>
       <r>  24.8797  0.0000</r>
       <r>  27.1353  0.0000</r>
       <r>  41.7841  0.0000</r>
      </set>
      <set comment="kpoint 59">
       <r>  -0.5860  1.0000</r>
       <r>  -0.1885  1.0000</r>
       <r>   1.7555  1.0000</r>
       <r>   2.2465  1.0000</r>
       <r>   2.6350  1.0000</r>
       <r>   6.7555  0.0000</r>
       <r>  11.2573  0.0000</r>
       <r>  14.1750  0.0000</r>
       <r>  14.9679  0.0000</r>
       <r>  25.1733  0.0000</r>
       <r>  27.4297  0.0000</r>
       <r>  41.3355  0.0000</r>
      </set>
      <set comment="kpoint 60">
       <r>  -0.5570  1.0000</r>
       <r>  -0.1673  1.0000</r>
       <r>   1.6880  1.0000</r>
       <r>   2.2235  1.0000</r>
       <r>   2.6351  1.0000</r>
       <r>   6.8883  0.0000</r>
       <r>  11.2867  0.0000</r>
       <r>  13.9701  0.0000</r>
       <r>  14.8202  0.0000</r>
       <r>  25.4754  0.0000</r>
       <r>  27.7348  0.0000</r>
       <r>  40.8877  0.0000</r>
      </set>
      <set comment="kpoint 61">
       <r>  -0.5274  1.0000</r>
       <r>  -0.1450  1.0000</r>
       <r>   1.6209  1.0000</r>
       <r>   2.1999  1.0000</r>
       <r>   2.6351  1.0000</r>
       <r>   7.0242  0.0000</r>
       <r>  11.3181  0.0000</r>
       <r>  13.7651  0.0000</r>
       <r>  14.6738  0.0000</r>
       <r>  25.7829  0.0000</r>
       <r>  28.0459  0.0000</r>
       <r>  40.4412  0.0000</r>
      </set>
      <set comment="kpoint 62">
       <r>  -0.4972  1.0000</r>
       <r>  -0.1215  1.0000</r>
       <r>   1.5542  1.0000</r>
       <r>   2.1757  1.0000</r>
       <r>   2.6352  1.0000</r>
       <r>   7.1632  0.0000</r>
       <r>  11.3515  0.0000</r>
       <r>  13.5605  0.0000</r>
       <r>  14.5292  0.0000</r>
       <r>  26.0954  0.0000</r>
       <r>  28.3624  0.0000</r>
       <r>  39.9963  0.0000</r>
      </set>
      <set comment="kpoint 63">
       <r>  -0.4667  1.0000</r>
       <r>  -0.0967  1.0000</r>
       <r>   1.4881  1.0000</r>
       <r>   2.1511  1.0000</r>
       <r>   2.6353  1.0000</r>
       <r>   7.3050  0.0000</r>
       <r>  11.3871  0.0000</r>
       <r>  13.3563  0.0000</r>
       <r>  14.3868  0.0000</r>
       <r>  26.4127  0.0000</r>
       <r>  28.6836  0.0000</r>
       <r>  39.5535  0.0000</r>
      </set>
      <set comment="kpoint 64">
       <r>  -0.4359  1.0000</r>
       <r>  -0.0696  1.0000</r>
       <r>   1.4235  1.0000</r>
       <r>   2.1262  1.0000</r>
       <r>   2.6366  1.0000</r>
       <r>   7.4505  0.0000</r>
       <r>  11.4255  0.0000</r>
       <r>  13.1580  0.0000</r>
       <r>  14.2468  0.0000</r>
       <r>  26.7550  0.0000</r>
       <r>  29.0092  0.0000</r>
       <r>  39.1262  0.0000</r>
      </set>
      <set comment="kpoint 65">
       <r>  -0.4053  1.0000</r>
       <r>  -0.0425  1.0000</r>
       <r>   1.3588  1.0000</r>
       <r>   2.1013  1.0000</r>
       <r>   2.6366  1.0000</r>
       <r>   7.5977  0.0000</r>
       <r>  11.4653  0.0000</r>
       <r>  12.9551  0.0000</r>
       <r>  14.1095  0.0000</r>
       <r>  27.0811  0.0000</r>
       <r>  29.3377  0.0000</r>
       <r>  38.6880  0.0000</r>
      </set>
      <set comment="kpoint 66">
       <r>  -0.3749  1.0000</r>
       <r>  -0.0141  1.0000</r>
       <r>   1.2950  1.0000</r>
       <r>   2.0763  1.0000</r>
       <r>   2.6366  1.0000</r>
       <r>   7.7475  0.0000</r>
       <r>  11.5074  0.0000</r>
       <r>  12.7531  0.0000</r>
       <r>  13.9750  0.0000</r>
       <r>  27.4116  0.0000</r>
       <r>  29.6686  0.0000</r>
       <r>  38.2525  0.0000</r>
      </set>
      <set comment="kpoint 67">
       <r>  -0.3449  1.0000</r>
       <r>   0.0154  1.0000</r>
       <r>   1.2321  1.0000</r>
       <r>   2.0516  1.0000</r>
       <r>   2.6366  1.0000</r>
       <r>   7.8997  0.0000</r>
       <r>  11.5518  0.0000</r>
       <r>  12.5522  0.0000</r>
       <r>  13.8436  0.0000</r>
       <r>  27.7465  0.0000</r>
       <r>  30.0010  0.0000</r>
       <r>  37.8199  0.0000</r>
      </set>
      <set comment="kpoint 68">
       <r>  -0.3154  1.0000</r>
       <r>   0.0472  1.0000</r>
       <r>   1.1705  1.0000</r>
       <r>   2.0294  1.0000</r>
       <r>   2.6367  1.0000</r>
       <r>   8.0548  0.0000</r>
       <r>  11.6004  0.0000</r>
       <r>  12.3565  0.0000</r>
       <r>  13.7156  0.0000</r>
       <r>  28.0985  0.0000</r>
       <r>  30.3369  0.0000</r>
       <r>  37.3962  0.0000</r>
      </set>
      <set comment="kpoint 69">
       <r>  -0.2871  1.0000</r>
       <r>   0.0792  1.0000</r>
       <r>   1.1097  1.0000</r>
       <r>   2.0057  1.0000</r>
       <r>   2.6367  1.0000</r>
       <r>   8.2118  0.0000</r>
       <r>  11.6493  0.0000</r>
       <r>  12.1578  0.0000</r>
       <r>  13.5911  0.0000</r>
       <r>  28.4412  0.0000</r>
       <r>  30.6687  0.0000</r>
       <r>  36.9694  0.0000</r>
      </set>
      <set comment="kpoint 70">
       <r>  -0.2600  1.0000</r>
       <r>   0.1125  1.0000</r>
       <r>   1.0499  1.0000</r>
       <r>   1.9829  1.0000</r>
       <r>   2.6367  1.0000</r>
       <r>   8.3710  0.0000</r>
       <r>  11.7007  0.0000</r>
       <r>  11.9604  0.0000</r>
       <r>  13.4702  0.0000</r>
       <r>  28.7881  0.0000</r>
       <r>  30.9981  0.0000</r>
       <r>  36.5458  0.0000</r>
      </set>
      <set comment="kpoint 71">
       <r>  -0.2343  1.0000</r>
       <r>   0.1471  1.0000</r>
       <r>   0.9913  1.0000</r>
       <r>   1.9612  1.0000</r>
       <r>   2.6367  1.0000</r>
       <r>   8.5324  0.0000</r>
       <r>  11.7544  0.0000</r>
       <r>  11.7644  0.0000</r>
       <r>  13.3532  0.0000</r>
       <r>  29.1389  0.0000</r>
       <r>  31.3231  0.0000</r>
       <r>  36.1255  0.0000</r>
      </set>
      <set comment="kpoint 72">
       <r>  -0.2109  1.0000</r>
       <r>   0.1828  1.0000</r>
       <r>   0.9320  1.0000</r>
       <r>   1.9408  1.0000</r>
       <r>   2.6361  1.0000</r>
       <r>   8.6921  0.0000</r>
       <r>  11.5695  0.0000</r>
       <r>  11.8063  0.0000</r>
       <r>  13.2390  0.0000</r>
       <r>  29.4919  0.0000</r>
       <r>  31.6364  0.0000</r>
       <r>  35.6830  0.0000</r>
      </set>
      <set comment="kpoint 73">
       <r>  -0.1890  1.0000</r>
       <r>   0.2200  1.0000</r>
       <r>   0.8756  1.0000</r>
       <r>   1.9222  1.0000</r>
       <r>   2.6361  1.0000</r>
       <r>   8.8576  0.0000</r>
       <r>  11.3765  0.0000</r>
       <r>  11.8643  0.0000</r>
       <r>  13.1303  0.0000</r>
       <r>  29.8507  0.0000</r>
       <r>  31.9438  0.0000</r>
       <r>  35.2690  0.0000</r>
      </set>
      <set comment="kpoint 74">
       <r>  -0.1694  1.0000</r>
       <r>   0.2584  1.0000</r>
       <r>   0.8205  1.0000</r>
       <r>   1.9054  1.0000</r>
       <r>   2.6361  1.0000</r>
       <r>   9.0252  0.0000</r>
       <r>  11.1851  0.0000</r>
       <r>  11.9242  0.0000</r>
       <r>  13.0263  0.0000</r>
       <r>  30.2133  0.0000</r>
       <r>  32.2364  0.0000</r>
       <r>  34.8584  0.0000</r>
      </set>
      <set comment="kpoint 75">
       <r>  -0.1523  1.0000</r>
       <r>   0.2981  1.0000</r>
       <r>   0.7666  1.0000</r>
       <r>   1.8907  1.0000</r>
       <r>   2.6360  1.0000</r>
       <r>   9.1948  0.0000</r>
       <r>  10.9953  0.0000</r>
       <r>  11.9854  0.0000</r>
       <r>  12.9275  0.0000</r>
       <r>  30.5799  0.0000</r>
       <r>  32.5085  0.0000</r>
       <r>  34.4513  0.0000</r>
      </set>
      <set comment="kpoint 76">
       <r>  -0.1379  1.0000</r>
       <r>   0.3391  1.0000</r>
       <r>   0.7140  1.0000</r>
       <r>   1.8783  1.0000</r>
       <r>   2.6360  1.0000</r>
       <r>   9.3664  0.0000</r>
       <r>  10.8072  0.0000</r>
       <r>  12.0471  0.0000</r>
       <r>  12.8350  0.0000</r>
       <r>  30.9503  0.0000</r>
       <r>  32.7526  0.0000</r>
       <r>  34.0477  0.0000</r>
      </set>
      <set comment="kpoint 77">
       <r>  -0.1265  1.0000</r>
       <r>   0.3815  1.0000</r>
       <r>   0.6627  1.0000</r>
       <r>   1.8685  1.0000</r>
       <r>   2.6360  1.0000</r>
       <r>   9.5399  0.0000</r>
       <r>  10.6208  0.0000</r>
       <r>  12.1074  0.0000</r>
       <r>  12.7508  0.0000</r>
       <r>  31.3244  0.0000</r>
       <r>  32.9596  0.0000</r>
       <r>  33.6478  0.0000</r>
      </set>
      <set comment="kpoint 78">
       <r>  -0.1182  1.0000</r>
       <r>   0.4251  1.0000</r>
       <r>   0.6126  1.0000</r>
       <r>   1.8613  1.0000</r>
       <r>   2.6360  1.0000</r>
       <r>   9.7154  0.0000</r>
       <r>  10.4361  0.0000</r>
       <r>  12.1624  0.0000</r>
       <r>  12.6786  0.0000</r>
       <r>  31.7024  0.0000</r>
       <r>  33.1190  0.0000</r>
       <r>  33.2514  0.0000</r>
      </set>
      <set comment="kpoint 79">
       <r>  -0.1132  1.0000</r>
       <r>   0.4700  1.0000</r>
       <r>   0.5638  1.0000</r>
       <r>   1.8570  1.0000</r>
       <r>   2.6360  1.0000</r>
       <r>   9.8928  0.0000</r>
       <r>  10.2532  0.0000</r>
       <r>  12.2043  0.0000</r>
       <r>  12.6263  0.0000</r>
       <r>  32.0841  0.0000</r>
       <r>  32.8586  0.0000</r>
       <r>  33.2200  0.0000</r>
      </set>
      <set comment="kpoint 80">
       <r>  -0.1115  1.0000</r>
       <r>   0.5162  1.0000</r>
       <r>   0.5162  1.0000</r>
       <r>   1.8555  1.0000</r>
       <r>   2.6360  1.0000</r>
       <r>  10.0719  0.0000</r>
       <r>  10.0722  0.0000</r>
       <r>  12.2208  0.0000</r>
       <r>  12.6064  0.0000</r>
       <r>  32.4694  0.0000</r>
       <r>  32.4696  0.0000</r>
       <r>  33.2548  0.0000</r>
      </set>
      <set comment="kpoint 81">
       <r>  -0.1115  1.0000</r>
       <r>   0.5162  1.0000</r>
       <r>   0.5162  1.0000</r>
       <r>   1.8555  1.0000</r>
       <r>   2.6360  1.0000</r>
       <r>  10.0719  0.0000</r>
       <r>  10.0722  0.0000</r>
       <r>  12.2208  0.0000</r>
       <r>  12.6064  0.0000</r>
       <r>  32.4694  0.0000</r>
       <r>  32.4696  0.0000</r>
       <r>  33.2548  0.0000</r>
      </set>
      <set comment="kpoint 82">
       <r>  -0.1100  1.0000</r>
       <r>   0.5134  1.0000</r>
       <r>   0.5175  1.0000</r>
       <r>   1.8556  1.0000</r>
       <r>   2.6342  1.0000</r>
       <r>  10.0327  0.0000</r>
       <r>  10.0512  0.0000</r>
       <r>  12.2652  0.0000</r>
       <r>  12.6384  0.0000</r>
       <r>  32.3467  0.0000</r>
       <r>  32.4654  0.0000</r>
       <r>  33.3837  0.0000</r>
      </set>
      <set comment="kpoint 83">
       <r>  -0.1056  1.0000</r>
       <r>   0.5050  1.0000</r>
       <r>   0.5213  1.0000</r>
       <r>   1.8557  1.0000</r>
       <r>   2.6287  1.0000</r>
       <r>   9.9227  0.0000</r>
       <r>   9.9919  0.0000</r>
       <r>  12.3897  0.0000</r>
       <r>  12.7314  0.0000</r>
       <r>  32.0920  0.0000</r>
       <r>  32.4527  0.0000</r>
       <r>  33.6572  0.0000</r>
      </set>
      <set comment="kpoint 84">
       <r>  -0.0983  1.0000</r>
       <r>   0.4911  1.0000</r>
       <r>   0.5276  1.0000</r>
       <r>   1.8557  1.0000</r>
       <r>   2.6198  1.0000</r>
       <r>   9.7608  0.0000</r>
       <r>   9.9019  0.0000</r>
       <r>  12.5758  0.0000</r>
       <r>  12.8774  0.0000</r>
       <r>  31.8018  0.0000</r>
       <r>  32.4318  0.0000</r>
       <r>  33.9787  0.0000</r>
      </set>
      <set comment="kpoint 85">
       <r>  -0.0881  1.0000</r>
       <r>   0.4718  1.0000</r>
       <r>   0.5364  1.0000</r>
       <r>   1.8554  1.0000</r>
       <r>   2.6078  1.0000</r>
       <r>   9.5652  0.0000</r>
       <r>   9.7904  0.0000</r>
       <r>  12.8053  0.0000</r>
       <r>  13.0672  0.0000</r>
       <r>  31.5033  0.0000</r>
       <r>  32.4033  0.0000</r>
       <r>  34.3212  0.0000</r>
      </set>
      <set comment="kpoint 86">
       <r>  -0.0747  1.0000</r>
       <r>   0.4475  1.0000</r>
       <r>   0.5481  1.0000</r>
       <r>   1.8542  1.0000</r>
       <r>   2.5935  1.0000</r>
       <r>   9.3519  0.0000</r>
       <r>   9.6660  0.0000</r>
       <r>  13.0658  0.0000</r>
       <r>  13.2922  0.0000</r>
       <r>  31.2070  0.0000</r>
       <r>  32.3717  0.0000</r>
       <r>  34.6870  0.0000</r>
      </set>
      <set comment="kpoint 87">
       <r>  -0.0586  1.0000</r>
       <r>   0.4181  1.0000</r>
       <r>   0.5617  1.0000</r>
       <r>   1.8518  1.0000</r>
       <r>   2.5766  1.0000</r>
       <r>   9.1233  0.0000</r>
       <r>   9.5343  0.0000</r>
       <r>  13.3473  0.0000</r>
       <r>  13.5457  0.0000</r>
       <r>  30.9113  0.0000</r>
       <r>  32.3298  0.0000</r>
       <r>  35.0518  0.0000</r>
      </set>
      <set comment="kpoint 88">
       <r>  -0.0397  1.0000</r>
       <r>   0.3841  1.0000</r>
       <r>   0.5777  1.0000</r>
       <r>   1.8477  1.0000</r>
       <r>   2.5582  1.0000</r>
       <r>   8.8879  0.0000</r>
       <r>   9.4005  0.0000</r>
       <r>  13.6453  0.0000</r>
       <r>  13.8226  0.0000</r>
       <r>  30.6205  0.0000</r>
       <r>  32.2822  0.0000</r>
       <r>  35.4243  0.0000</r>
      </set>
      <set comment="kpoint 89">
       <r>  -0.0176  1.0000</r>
       <r>   0.3462  1.0000</r>
       <r>   0.5961  1.0000</r>
       <r>   1.8412  1.0000</r>
       <r>   2.5390  1.0000</r>
       <r>   8.6511  0.0000</r>
       <r>   9.2699  0.0000</r>
       <r>  13.9573  0.0000</r>
       <r>  14.1193  0.0000</r>
       <r>  30.3356  0.0000</r>
       <r>  32.2396  0.0000</r>
       <r>  35.8110  0.0000</r>
      </set>
      <set comment="kpoint 90">
       <r>   0.0071  1.0000</r>
       <r>   0.3037  1.0000</r>
       <r>   0.6165  1.0000</r>
       <r>   1.8306  1.0000</r>
       <r>   2.5180  1.0000</r>
       <r>   8.4110  0.0000</r>
       <r>   9.1405  0.0000</r>
       <r>  14.2783  0.0000</r>
       <r>  14.4316  0.0000</r>
       <r>  30.0558  0.0000</r>
       <r>  32.1813  0.0000</r>
       <r>  36.1972  0.0000</r>
      </set>
      <set comment="kpoint 91">
       <r>   0.0346  1.0000</r>
       <r>   0.2575  1.0000</r>
       <r>   0.6392  1.0000</r>
       <r>   1.8175  1.0000</r>
       <r>   2.4995  1.0000</r>
       <r>   8.1713  0.0000</r>
       <r>   9.0162  0.0000</r>
       <r>  14.6095  0.0000</r>
       <r>  14.7597  0.0000</r>
       <r>  29.7835  0.0000</r>
       <r>  32.1208  0.0000</r>
       <r>  36.5897  0.0000</r>
      </set>
      <set comment="kpoint 92">
       <r>   0.0649  1.0000</r>
       <r>   0.2079  1.0000</r>
       <r>   0.6639  1.0000</r>
       <r>   1.8005  1.0000</r>
       <r>   2.4826  1.0000</r>
       <r>   7.9328  0.0000</r>
       <r>   8.8979  0.0000</r>
       <r>  14.9490  0.0000</r>
       <r>  15.1009  0.0000</r>
       <r>  29.5180  0.0000</r>
       <r>  32.0575  0.0000</r>
       <r>  36.9881  0.0000</r>
      </set>
      <set comment="kpoint 93">
       <r>   0.0971  1.0000</r>
       <r>   0.1550  1.0000</r>
       <r>   0.6896  1.0000</r>
       <r>   1.7788  1.0000</r>
       <r>   2.4672  1.0000</r>
       <r>   7.6939  0.0000</r>
       <r>   8.7854  0.0000</r>
       <r>  15.2887  0.0000</r>
       <r>  15.4539  0.0000</r>
       <r>  29.2542  0.0000</r>
       <r>  31.9871  0.0000</r>
       <r>  37.3722  0.0000</r>
      </set>
      <set comment="kpoint 94">
       <r>   0.0994  1.0000</r>
       <r>   0.1328  1.0000</r>
       <r>   0.7182  1.0000</r>
       <r>   1.7534  1.0000</r>
       <r>   2.4547  1.0000</r>
       <r>   7.4598  0.0000</r>
       <r>   8.6804  0.0000</r>
       <r>  15.6426  0.0000</r>
       <r>  15.8181  0.0000</r>
       <r>  29.0035  0.0000</r>
       <r>  31.9195  0.0000</r>
       <r>  37.7807  0.0000</r>
      </set>
      <set comment="kpoint 95">
       <r>   0.0415  1.0000</r>
       <r>   0.1711  1.0000</r>
       <r>   0.7488  1.0000</r>
       <r>   1.7242  1.0000</r>
       <r>   2.4449  1.0000</r>
       <r>   7.2286  0.0000</r>
       <r>   8.5822  0.0000</r>
       <r>  16.0032  0.0000</r>
       <r>  16.1925  0.0000</r>
       <r>  28.7604  0.0000</r>
       <r>  31.8506  0.0000</r>
       <r>  38.1946  0.0000</r>
      </set>
      <set comment="kpoint 96">
       <r>  -0.0185  1.0000</r>
       <r>   0.2119  1.0000</r>
       <r>   0.7813  1.0000</r>
       <r>   1.6913  1.0000</r>
       <r>   2.4377  1.0000</r>
       <r>   7.0005  0.0000</r>
       <r>   8.4910  0.0000</r>
       <r>  16.3702  0.0000</r>
       <r>  16.5763  0.0000</r>
       <r>  28.5250  0.0000</r>
       <r>  31.7807  0.0000</r>
       <r>  38.6139  0.0000</r>
      </set>
      <set comment="kpoint 97">
       <r>  -0.0802  1.0000</r>
       <r>   0.2549  1.0000</r>
       <r>   0.8158  1.0000</r>
       <r>   1.6555  1.0000</r>
       <r>   2.4329  1.0000</r>
       <r>   6.7758  0.0000</r>
       <r>   8.4066  0.0000</r>
       <r>  16.7434  0.0000</r>
       <r>  16.9688  0.0000</r>
       <r>  28.2975  0.0000</r>
       <r>  31.7102  0.0000</r>
       <r>  39.0384  0.0000</r>
      </set>
      <set comment="kpoint 98">
       <r>  -0.1432  1.0000</r>
       <r>   0.3001  1.0000</r>
       <r>   0.8523  1.0000</r>
       <r>   1.6172  1.0000</r>
       <r>   2.4303  1.0000</r>
       <r>   6.5545  0.0000</r>
       <r>   8.3287  0.0000</r>
       <r>  17.1227  0.0000</r>
       <r>  17.3695  0.0000</r>
       <r>  28.0781  0.0000</r>
       <r>  31.6391  0.0000</r>
       <r>  39.4679  0.0000</r>
      </set>
      <set comment="kpoint 99">
       <r>  -0.2071  1.0000</r>
       <r>   0.3472  1.0000</r>
       <r>   0.8909  1.0000</r>
       <r>   1.5773  1.0000</r>
       <r>   2.4295  1.0000</r>
       <r>   6.3368  0.0000</r>
       <r>   8.2570  0.0000</r>
       <r>  17.5078  0.0000</r>
       <r>  17.7779  0.0000</r>
       <r>  27.8670  0.0000</r>
       <r>  31.5675  0.0000</r>
       <r>  39.9058  0.0000</r>
      </set>
      <set comment="kpoint 100">
       <r>  -0.2716  1.0000</r>
       <r>   0.3958  1.0000</r>
       <r>   0.9317  1.0000</r>
       <r>   1.5363  1.0000</r>
       <r>   2.4302  1.0000</r>
       <r>   6.1228  0.0000</r>
       <r>   8.1914  0.0000</r>
       <r>  17.8986  0.0000</r>
       <r>  18.1934  0.0000</r>
       <r>  27.6643  0.0000</r>
       <r>  31.4954  0.0000</r>
       <r>  39.4079  0.0000</r>
      </set>
      <set comment="kpoint 101">
       <r>  -0.3363  1.0000</r>
       <r>   0.4455  1.0000</r>
       <r>   0.9745  1.0000</r>
       <r>   1.4937  1.0000</r>
       <r>   2.4316  1.0000</r>
       <r>   5.9118  0.0000</r>
       <r>   8.1310  0.0000</r>
       <r>  18.2949  0.0000</r>
       <r>  18.6138  0.0000</r>
       <r>  27.4695  0.0000</r>
       <r>  31.4163  0.0000</r>
       <r>  38.7602  0.0000</r>
      </set>
      <set comment="kpoint 102">
       <r>  -0.4007  1.0000</r>
       <r>   0.4959  1.0000</r>
       <r>   1.0200  1.0000</r>
       <r>   1.4512  1.0000</r>
       <r>   2.4340  1.0000</r>
       <r>   5.7050  0.0000</r>
       <r>   8.0759  0.0000</r>
       <r>  18.6951  0.0000</r>
       <r>  19.0409  0.0000</r>
       <r>  27.2840  0.0000</r>
       <r>  31.3297  0.0000</r>
       <r>  38.1145  0.0000</r>
      </set>
      <set comment="kpoint 103">
       <r>  -0.4643  1.0000</r>
       <r>   0.5466  1.0000</r>
       <r>   1.0690  1.0000</r>
       <r>   1.4102  1.0000</r>
       <r>   2.4375  1.0000</r>
       <r>   5.5023  0.0000</r>
       <r>   8.0261  0.0000</r>
       <r>  19.1020  0.0000</r>
       <r>  19.4743  0.0000</r>
       <r>  27.1077  0.0000</r>
       <r>  31.2531  0.0000</r>
       <r>  37.4808  0.0000</r>
      </set>
      <set comment="kpoint 104">
       <r>  -0.5268  1.0000</r>
       <r>   0.5969  1.0000</r>
       <r>   1.1215  1.0000</r>
       <r>   1.3702  1.0000</r>
       <r>   2.4414  1.0000</r>
       <r>   5.3035  0.0000</r>
       <r>   7.9810  0.0000</r>
       <r>  19.5140  0.0000</r>
       <r>  19.9125  0.0000</r>
       <r>  26.9406  0.0000</r>
       <r>  31.1744  0.0000</r>
       <r>  36.8544  0.0000</r>
      </set>
      <set comment="kpoint 105">
       <r>  -0.5878  1.0000</r>
       <r>   0.6461  1.0000</r>
       <r>   1.1780  1.0000</r>
       <r>   1.3314  1.0000</r>
       <r>   2.4457  1.0000</r>
       <r>   5.1086  0.0000</r>
       <r>   7.9402  0.0000</r>
       <r>  19.9307  0.0000</r>
       <r>  20.3550  0.0000</r>
       <r>  26.7828  0.0000</r>
       <r>  31.0930  0.0000</r>
       <r>  36.2357  0.0000</r>
      </set>
      <set comment="kpoint 106">
       <r>  -0.6468  1.0000</r>
       <r>   0.6936  1.0000</r>
       <r>   1.2389  1.0000</r>
       <r>   1.2943  1.0000</r>
       <r>   2.4501  1.0000</r>
       <r>   4.9176  0.0000</r>
       <r>   7.9034  0.0000</r>
       <r>  20.3519  0.0000</r>
       <r>  20.8010  0.0000</r>
       <r>  26.6346  0.0000</r>
       <r>  31.0079  0.0000</r>
       <r>  35.6252  0.0000</r>
      </set>
      <set comment="kpoint 107">
       <r>  -0.7036  1.0000</r>
       <r>   0.7389  1.0000</r>
       <r>   1.2590  1.0000</r>
       <r>   1.3047  1.0000</r>
       <r>   2.4545  1.0000</r>
       <r>   4.7306  1.0000</r>
       <r>   7.8704  0.0000</r>
       <r>  20.7771  0.0000</r>
       <r>  21.2496  0.0000</r>
       <r>  26.4960  0.0000</r>
       <r>  30.9180  0.0000</r>
       <r>  35.0232  0.0000</r>
      </set>
      <set comment="kpoint 108">
       <r>  -0.7577  1.0000</r>
       <r>   0.7814  1.0000</r>
       <r>   1.2258  1.0000</r>
       <r>   1.3756  1.0000</r>
       <r>   2.4589  1.0000</r>
       <r>   4.5476  1.0000</r>
       <r>   7.8410  0.0000</r>
       <r>  21.2059  0.0000</r>
       <r>  21.6998  0.0000</r>
       <r>  26.3674  0.0000</r>
       <r>  30.8219  0.0000</r>
       <r>  34.4303  0.0000</r>
[...]
       </set>
       <set comment="band 5">
        <r>  0.0000  0.0000  0.0000  0.0000  0.4975  0.0000  0.0000  0.4976  0.0000 </r>
       </set>
       <set comment="band 6">
        <r>  0.0000  0.0000  0.0000  0.5540  0.0332  0.0000  0.0000  0.0332  0.0000 </r>
       </set>
       <set comment="band 7">
        <r>  0.4000  0.0030  0.0030  0.0000  0.0000  0.0000  0.0870  0.0000  0.2609 </r>
       </set>
       <set comment="band 8">
        <r>  0.0505  0.2405  0.2405  0.0000  0.0000  0.0692  0.0025  0.0000  0.0074 </r>
       </set>
       <set comment="band 9">
        <r>  0.0000  0.2878  0.2879  0.0000  0.0000  0.0000  0.0056  0.0000  0.0019 </r>
       </set>
       <set comment="band 10">
        <r>  0.0441  0.0080  0.0080  0.0000  0.0000  0.6171  0.0049  0.0000  0.0148 </r>
       </set>
       <set comment="band 11">
        <r>  0.3260  0.0386  0.0386  0.0000  0.0000  0.0396  0.0473  0.0000  0.1418 </r>
       </set>
       <set comment="band 12">
        <r>  0.0000  0.0000  0.0000  0.0000  0.0480  0.0000  0.0000  0.0482  0.0000 </r>
       </set>
      </set>
      <set comment="kpoint 230">
       <set comment="band 1">
        <r>  0.0447  0.0010  0.0010  0.0000  0.0000  0.0005  0.1990  0.0000  0.5969 </r>
       </set>
       <set comment="band 2">
        <r>  0.0000  0.0012  0.0012  0.0000  0.0000  0.9116  0.0001  0.0000  0.0003 </r>
       </set>
       <set comment="band 3">
        <r>  0.0000  0.0003  0.0003  0.0000  0.0000  0.0000  0.7437  0.0000  0.2479 </r>
       </set>
       <set comment="band 4">
        <r>  0.0000  0.0000  0.0000  0.0296  0.4706  0.0000  0.0000  0.4705  0.0000 </r>
       </set>
       <set comment="band 5">
        <r>  0.0000  0.0000  0.0000  0.0000  0.4976  0.0000  0.0000  0.4976  0.0000 </r>
       </set>
       <set comment="band 6">
        <r>  0.0000  0.0000  0.0000  0.5589  0.0288  0.0000  0.0000  0.0288  0.0000 </r>
       </set>
       <set comment="band 7">
        <r>  0.4010  0.0024  0.0024  0.0000  0.0000  0.0000  0.0872  0.0000  0.2615 </r>
       </set>
       <set comment="band 8">
        <r>  0.0439  0.2459  0.2458  0.0000  0.0000  0.0626  0.0022  0.0000  0.0067 </r>
       </set>
       <set comment="band 9">
        <r>  0.0000  0.2881  0.2882  0.0000  0.0000  0.0000  0.0046  0.0000  0.0015 </r>
       </set>
       <set comment="band 10">
        <r>  0.0343  0.0088  0.0088  0.0000  0.0000  0.6339  0.0038  0.0000  0.0114 </r>
       </set>
       <set comment="band 11">
        <r>  0.3416  0.0329  0.0329  0.0000  0.0000  0.0301  0.0487  0.0000  0.1460 </r>
       </set>
       <set comment="band 12">
        <r>  0.0000  0.0000  0.0000  0.0000  0.0421  0.0000  0.0000  0.0425  0.0000 </r>
       </set>
      </set>
      <set comment="kpoint 231">
       <set comment="band 1">
        <r>  0.0452  0.0009  0.0009  0.0000  0.0000  0.0003  0.1989  0.0000  0.5967 </r>
       </set>
       <set comment="band 2">
        <r>  0.0000  0.0010  0.0010  0.0000  0.0000  0.9123  0.0001  0.0000  0.0002 </r>
       </set>
       <set comment="band 3">
        <r>  0.0000  0.0002  0.0002  0.0000  0.0000  0.0000  0.7440  0.0000  0.2480 </r>
       </set>
       <set comment="band 4">
        <r>  0.0000  0.0000  0.0000  0.0252  0.4747  0.0000  0.0000  0.4747  0.0000 </r>
       </set>
       <set comment="band 5">
        <r>  0.0000  0.0000  0.0000  0.0000  0.4976  0.0000  0.0000  0.4976  0.0000 </r>
       </set>
       <set comment="band 6">
        <r>  0.0000  0.0000  0.0000  0.5639  0.0243  0.0000  0.0000  0.0243  0.0000 </r>
       </set>
       <set comment="band 7">
        <r>  0.4018  0.0019  0.0019  0.0000  0.0000  0.0000  0.0874  0.0000  0.2621 </r>
       </set>
       <set comment="band 8">
        <r>  0.0375  0.2514  0.2513  0.0000  0.0000  0.0555  0.0020  0.0000  0.0059 </r>
       </set>
       <set comment="band 9">
        <r>  0.0000  0.2884  0.2884  0.0000  0.0000  0.0000  0.0038  0.0000  0.0013 </r>
       </set>
       <set comment="band 10">
        <r>  0.0254  0.0092  0.0092  0.0000  0.0000  0.6500  0.0028  0.0000  0.0084 </r>
       </set>
       <set comment="band 11">
        <r>  0.3563  0.0273  0.0273  0.0000  0.0000  0.0218  0.0500  0.0000  0.1499 </r>
       </set>
       <set comment="band 12">
        <r>  0.0000  0.0000  0.0000  0.0000  0.0365  0.0000  0.0000  0.0367  0.0000 </r>
       </set>
      </set>
      <set comment="kpoint 232">
       <set comment="band 1">
        <r>  0.0456  0.0007  0.0007  0.0000  0.0000  0.0002  0.1988  0.0000  0.5965 </r>
       </set>
       <set comment="band 2">
        <r>  0.0000  0.0008  0.0008  0.0000  0.0000  0.9130  0.0000  0.0000  0.0001 </r>
       </set>
       <set comment="band 3">
        <r>  0.0000  0.0002  0.0002  0.0000  0.0000  0.0000  0.7442  0.0000  0.2481 </r>
       </set>
       <set comment="band 4">
        <r>  0.0000  0.0000  0.0000  0.0208  0.4787  0.0000  0.0000  0.4787  0.0000 </r>
       </set>
       <set comment="band 5">
        <r>  0.0000  0.0000  0.0000  0.0000  0.4976  0.0000  0.0000  0.4977  0.0000 </r>
       </set>
       <set comment="band 6">
        <r>  0.0000  0.0000  0.0000  0.5687  0.0200  0.0000  0.0000  0.0200  0.0000 </r>
       </set>
       <set comment="band 7">
        <r>  0.4026  0.0015  0.0015  0.0000  0.0000  0.0000  0.0875  0.0000  0.2626 </r>
       </set>
       <set comment="band 8">
        <r>  0.0312  0.2570  0.2570  0.0000  0.0000  0.0479  0.0017  0.0000  0.0050 </r>
       </set>
       <set comment="band 9">
        <r>  0.0000  0.2886  0.2887  0.0000  0.0000  0.0000  0.0030  0.0000  0.0010 </r>
       </set>
       <set comment="band 10">
        <r>  0.0177  0.0093  0.0093  0.0000  0.0000  0.6652  0.0019  0.0000  0.0058 </r>
       </set>
       <set comment="band 11">
        <r>  0.3698  0.0220  0.0220  0.0000  0.0000  0.0148  0.0511  0.0000  0.1534 </r>
       </set>
       <set comment="band 12">
        <r>  0.0000  0.0000  0.0000  0.0000  0.0308  0.0000  0.0000  0.0309  0.0000 </r>
       </set>
      </set>
      <set comment="kpoint 233">
       <set comment="band 1">
        <r>  0.0460  0.0005  0.0005  0.0000  0.0000  0.0001  0.1988  0.0000  0.5964 </r>
       </set>
       <set comment="band 2">
        <r>  0.0000  0.0006  0.0006  0.0000  0.0000  0.9135  0.0000  0.0000  0.0001 </r>
       </set>
       <set comment="band 3">
        <r>  0.0000  0.0001  0.0001  0.0000  0.0000  0.0000  0.7445  0.0000  0.2482 </r>
       </set>
       <set comment="band 4">
        <r>  0.0000  0.0000  0.0000  0.0166  0.4826  0.0000  0.0000  0.4825  0.0000 </r>
       </set>
       <set comment="band 5">
        <r>  0.0000  0.0000  0.0000  0.0000  0.4976  0.0000  0.0000  0.4977  0.0000 </r>
       </set>
       <set comment="band 6">
        <r>  0.0000  0.0000  0.0000  0.5732  0.0159  0.0000  0.0000  0.0159  0.0000 </r>
       </set>
       <set comment="band 7">
        <r>  0.4032  0.0012  0.0012  0.0000  0.0000  0.0000  0.0877  0.0000  0.2630 </r>
       </set>
       <set comment="band 8">
        <r>  0.0251  0.2628  0.2627  0.0000  0.0000  0.0399  0.0014  0.0000  0.0041 </r>
       </set>
       <set comment="band 9">
        <r>  0.0000  0.2888  0.2889  0.0000  0.0000  0.0000  0.0023  0.0000  0.0008 </r>
       </set>
       <set comment="band 10">
        <r>  0.0114  0.0088  0.0088  0.0000  0.0000  0.6792  0.0012  0.0000  0.0037 </r>
       </set>
       <set comment="band 11">
        <r>  0.3816  0.0171  0.0171  0.0000  0.0000  0.0093  0.0521  0.0000  0.1564 </r>
       </set>
       <set comment="band 12">
        <r>  0.0000  0.0000  0.0000  0.0000  0.0251  0.0000  0.0000  0.0250  0.0000 </r>
       </set>
      </set>
      <set comment="kpoint 234">
       <set comment="band 1">
        <r>  0.0464  0.0004  0.0004  0.0000  0.0000  0.0001  0.1987  0.0000  0.5962 </r>
       </set>
       <set comment="band 2">
        <r>  0.0000  0.0004  0.0004  0.0000  0.0000  0.9139  0.0000  0.0000  0.0000 </r>
       </set>
       <set comment="band 3">
        <r>  0.0000  0.0001  0.0001  0.0000  0.0000  0.0000  0.7447  0.0000  0.2482 </r>
       </set>
       <set comment="band 4">
        <r>  0.0000  0.0000  0.0000  0.0127  0.4862  0.0000  0.0000  0.4861  0.0000 </r>
       </set>
       <set comment="band 5">
        <r>  0.0000  0.0000  0.0000  0.0000  0.4976  0.0000  0.0000  0.4977  0.0000 </r>
       </set>
       <set comment="band 6">
        <r>  0.0000  0.0000  0.0000  0.5775  0.0121  0.0000  0.0000  0.0121  0.0000 </r>
       </set>
       <set comment="band 7">
        <r>  0.4037  0.0008  0.0008  0.0000  0.0000  0.0000  0.0878  0.0000  0.2635 </r>
       </set>
       <set comment="band 8">
        <r>  0.0194  0.2685  0.2683  0.0000  0.0000  0.0318  0.0011  0.0000  0.0032 </r>
       </set>
       <set comment="band 9">
        <r>  0.0000  0.2890  0.2891  0.0000  0.0000  0.0000  0.0017  0.0000  0.0006 </r>
       </set>
       <set comment="band 10">
        <r>  0.0067  0.0078  0.0078  0.0000  0.0000  0.6917  0.0007  0.0000  0.0021 </r>
       </set>
       <set comment="band 11">
        <r>  0.3917  0.0126  0.0126  0.0000  0.0000  0.0053  0.0529  0.0000  0.1588 </r>
       </set>
       <set comment="band 12">
        <r>  0.0000  0.0000  0.0000  0.0000  0.0195  0.0000  0.0000  0.0195  0.0000 </r>
       </set>
      </set>
      <set comment="kpoint 235">
       <set comment="band 1">
        <r>  0.0467  0.0003  0.0003  0.0000  0.0000  0.0000  0.1987  0.0000  0.5961 </r>
       </set>
       <set comment="band 2">
        <r>  0.0000  0.0003  0.0003  0.0000  0.0000  0.9142  0.0000  0.0000  0.0000 </r>
       </set>
       <set comment="band 3">
        <r>  0.0000  0.0001  0.0001  0.0000  0.0000  0.0000  0.7448  0.0000  0.2483 </r>
       </set>
       <set comment="band 4">
        <r>  0.0000  0.0000  0.0000  0.0091  0.4895  0.0000  0.0000  0.4894  0.0000 </r>
       </set>
       <set comment="band 5">
        <r>  0.0000  0.0000  0.0000  0.0000  0.4976  0.0000  0.0000  0.4977  0.0000 </r>
       </set>
       <set comment="band 6">
        <r>  0.0000  0.0000  0.0000  0.5814  0.0087  0.0000  0.0000  0.0087  0.0000 </r>
       </set>
       <set comment="band 7">
        <r>  0.4041  0.0006  0.0006  0.0000  0.0000  0.0000  0.0879  0.0000  0.2638 </r>
       </set>
       <set comment="band 8">
        <r>  0.0141  0.2740  0.2738  0.0000  0.0000  0.0238  0.0008  0.0000  0.0024 </r>
       </set>
       <set comment="band 9">
        <r>  0.0000  0.2891  0.2893  0.0000  0.0000  0.0000  0.0012  0.0000  0.0004 </r>
       </set>
       <set comment="band 10">
        <r>  0.0035  0.0064  0.0064  0.0000  0.0000  0.7027  0.0004  0.0000  0.0011 </r>
       </set>
       <set comment="band 11">
        <r>  0.3999  0.0088  0.0088  0.0000  0.0000  0.0027  0.0536  0.0000  0.1607 </r>
       </set>
       <set comment="band 12">
        <r>  0.0000  0.0000  0.0000  0.0000  0.0143  0.0000  0.0000  0.0143  0.0000 </r>
       </set>
      </set>
      <set comment="kpoint 236">
       <set comment="band 1">
        <r>  0.0469  0.0002  0.0002  0.0000  0.0000  0.0000  0.1987  0.0000  0.5960 </r>
       </set>
       <set comment="band 2">
        <r>  0.0000  0.0002  0.0002  0.0000  0.0000  0.9145  0.0000  0.0000  0.0000 </r>
       </set>
       <set comment="band 3">
        <r>  0.0000  0.0000  0.0000  0.0000  0.0000  0.0000  0.7450  0.0000  0.2483 </r>
       </set>
       <set comment="band 4">
        <r>  0.0000  0.0000  0.0000  0.0060  0.4924  0.0000  0.0000  0.4922  0.0000 </r>
       </set>
       <set comment="band 5">
        <r>  0.0000  0.0000  0.0000  0.0000  0.4976  0.0000  0.0000  0.4978  0.0000 </r>
       </set>
       <set comment="band 6">
        <r>  0.0000  0.0000  0.0000  0.5847  0.0057  0.0000  0.0000  0.0057  0.0000 </r>
       </set>
       <set comment="band 7">
        <r>  0.4045  0.0004  0.0004  0.0000  0.0000  0.0000  0.0880  0.0000  0.2641 </r>
       </set>
       <set comment="band 8">
        <r>  0.0094  0.2791  0.2788  0.0000  0.0000  0.0163  0.0005  0.0000  0.0016 </r>
       </set>
       <set comment="band 9">
        <r>  0.0000  0.2892  0.2894  0.0000  0.0000  0.0000  0.0007  0.0000  0.0002 </r>
       </set>
       <set comment="band 10">
        <r>  0.0015  0.0047  0.0047  0.0000  0.0000  0.7121  0.0002  0.0000  0.0005 </r>
       </set>
       <set comment="band 11">
        <r>  0.4063  0.0056  0.0056  0.0000  0.0000  0.0011  0.0540  0.0000  0.1621 </r>
       </set>
       <set comment="band 12">
        <r>  0.0000  0.0000  0.0000  0.0000  0.0096  0.0000  0.0000  0.0096  0.0000 </r>
       </set>
      </set>
      <set comment="kpoint 237">
       <set comment="band 1">
        <r>  0.0471  0.0001  0.0001  0.0000  0.0000  0.0000  0.1986  0.0000  0.5959 </r>
       </set>
       <set comment="band 2">
        <r>  0.0000  0.0001  0.0001  0.0000  0.0000  0.9147  0.0000  0.0000  0.0000 </r>
       </set>
       <set comment="band 3">
        <r>  0.0000  0.0000  0.0000  0.0000  0.0000  0.0000  0.7451  0.0000  0.2484 </r>
       </set>
       <set comment="band 4">
        <r>  0.0000  0.0000  0.0000  0.0034  0.4947  0.0000  0.0000  0.4944  0.0000 </r>
       </set>
       <set comment="band 5">
        <r>  0.0000  0.0000  0.0000  0.0000  0.4976  0.0000  0.0000  0.4979  0.0000 </r>
       </set>
       <set comment="band 6">
        <r>  0.0000  0.0000  0.0000  0.5874  0.0033  0.0000  0.0000  0.0033  0.0000 </r>
       </set>
       <set comment="band 7">
        <r>  0.4047  0.0002  0.0002  0.0000  0.0000  0.0000  0.0881  0.0000  0.2643 </r>
       </set>
       <set comment="band 8">
        <r>  0.0055  0.2835  0.2830  0.0000  0.0000  0.0097  0.0003  0.0000  0.0010 </r>
       </set>
       <set comment="band 9">
        <r>  0.0000  0.2891  0.2897  0.0000  0.0000  0.0000  0.0004  0.0000  0.0001 </r>
       </set>
       <set comment="band 10">
        <r>  0.0005  0.0029  0.0029  0.0000  0.0000  0.7198  0.0001  0.0000  0.0002 </r>
       </set>
       <set comment="band 11">
        <r>  0.4111  0.0032  0.0032  0.0000  0.0000  0.0004  0.0544  0.0000  0.1631 </r>
       </set>
       <set comment="band 12">
        <r>  0.0000  0.0000  0.0000  0.0000  0.0056  0.0000  0.0000  0.0056  0.0000 </r>
       </set>
      </set>
      <set comment="kpoint 238">
       <set comment="band 1">
        <r>  0.0472  0.0000  0.0000  0.0000  0.0000  0.0000  0.1986  0.0000  0.5958 </r>
       </set>
       <set comment="band 2">
        <r>  0.0000  0.0000  0.0000  0.0000  0.0000  0.9148  0.0000  0.0000  0.0000 </r>
       </set>
       <set comment="band 3">
        <r>  0.0000  0.0000  0.0000  0.0000  0.0000  0.0000  0.7452  0.0000  0.2484 </r>
       </set>
       <set comment="band 4">
        <r>  0.0000  0.0000  0.0000  0.0016  0.4966  0.0000  0.0000  0.4960  0.0000 </r>
       </set>
       <set comment="band 5">
        <r>  0.0000  0.0000  0.0000  0.0000  0.4974  0.0000  0.0000  0.4980  0.0000 </r>
       </set>
       <set comment="band 6">
        <r>  0.0000  0.0000  0.0000  0.5894  0.0015  0.0000  0.0000  0.0015  0.0000 </r>
       </set>
       <set comment="band 7">
        <r>  0.4049  0.0001  0.0001  0.0000  0.0000  0.0000  0.0882  0.0000  0.2645 </r>
       </set>
       <set comment="band 8">
        <r>  0.0025  0.2872  0.2861  0.0000  0.0000  0.0045  0.0001  0.0000  0.0004 </r>
       </set>
       <set comment="band 9">
        <r>  0.0000  0.2889  0.2900  0.0000  0.0000  0.0000  0.0002  0.0000  0.0001 </r>
       </set>
       <set comment="band 10">
        <r>  0.0001  0.0014  0.0014  0.0000  0.0000  0.7255  0.0000  0.0000  0.0000 </r>
       </set>
       <set comment="band 11">
        <r>  0.4143  0.0014  0.0014  0.0000  0.0000  0.0001  0.0546  0.0000  0.1637 </r>
       </set>
       <set comment="band 12">
        <r>  0.0000  0.0000  0.0000  0.0000  0.0026  0.0000  0.0000  0.0026  0.0000 </r>
       </set>
      </set>
      <set comment="kpoint 239">
       <set comment="band 1">
        <r>  0.0473  0.0000  0.0000  0.0000  0.0000  0.0000  0.1986  0.0000  0.5958 </r>
       </set>
       <set comment="band 2">
        <r>  0.0000  0.0000  0.0000  0.0000  0.0000  0.9149  0.0000  0.0000  0.0000 </r>
       </set>
       <set comment="band 3">
        <r>  0.0000  0.0000  0.0000  0.0000  0.0000  0.0000  0.7452  0.0000  0.2484 </r>
       </set>
       <set comment="band 4">
        <r>  0.0000  0.0000  0.0000  0.0004  0.4987  0.0000  0.0000  0.4961  0.0000 </r>
       </set>
       <set comment="band 5">
        <r>  0.0000  0.0000  0.0000  0.0000  0.4964  0.0000  0.0000  0.4990  0.0000 </r>
       </set>
       <set comment="band 6">
        <r>  0.0000  0.0000  0.0000  0.5907  0.0004  0.0000  0.0000  0.0004  0.0000 </r>
       </set>
       <set comment="band 7">
        <r>  0.4050  0.0000  0.0000  0.0000  0.0000  0.0000  0.0882  0.0000  0.2646 </r>
       </set>
       <set comment="band 8">
        <r>  0.0006  0.2911  0.2864  0.0000  0.0000  0.0012  0.0000  0.0000  0.0001 </r>
       </set>
       <set comment="band 9">
        <r>  0.0000  0.2872  0.2918  0.0000  0.0000  0.0000  0.0000  0.0000  0.0000 </r>
       </set>
       <set comment="band 10">
        <r>  0.0000  0.0004  0.0004  0.0000  0.0000  0.7290  0.0000  0.0000  0.0000 </r>
       </set>
       <set comment="band 11">
        <r>  0.4162  0.0003  0.0003  0.0000  0.0000  0.0000  0.0547  0.0000  0.1641 </r>
       </set>
       <set comment="band 12">
        <r>  0.0000  0.0000  0.0000  0.0000  0.0007  0.0000  0.0000  0.0007  0.0000 </r>
       </set>
      </set>
      <set comment="kpoint 240">
       <set comment="band 1">
        <r>  0.0473  0.0000  0.0000  0.0000  0.0000  0.0000  0.1986  0.0000  0.5958 </r>
       </set>
       <set comment="band 2">
        <r>  0.0000  0.0000  0.0000  0.0000  0.0000  0.9150  0.0000  0.0000  0.0000 </r>
       </set>
       <set comment="band 3">
        <r>  0.0000  0.0000  0.0000  0.0000  0.0000  0.0000  0.7452  0.0000  0.2484 </r>
       </set>
       <set comment="band 4">
        <r>  0.0000  0.0000  0.0000  0.0000  0.8715  0.0000  0.0000  0.1239  0.0000 </r>
       </set>
       <set comment="band 5">
        <r>  0.0000  0.0000  0.0000  0.0000  0.1239  0.0000  0.0000  0.8715  0.0000 </r>
       </set>
       <set comment="band 6">
        <r>  0.0000  0.0000  0.0000  0.5911  0.0000  0.0000  0.0000  0.0000  0.0000 </r>
       </set>
       <set comment="band 7">
        <r>  0.4051  0.0000  0.0000  0.0000  0.0000  0.0000  0.0882  0.0000  0.2646 </r>
       </set>
       <set comment="band 8">
        <r>  0.0000  0.5787  0.0004  0.0000  0.0000  0.0000  0.0000  0.0000  0.0000 </r>
       </set>
       <set comment="band 9">
        <r>  0.0000  0.0004  0.5787  0.0000  0.0000  0.0000  0.0000  0.0000  0.0000 </r>
       </set>
       <set comment="band 10">
        <r>  0.0000  0.0000  0.0000  0.0000  0.0000  0.7302  0.0000  0.0000  0.0000 </r>
       </set>
       <set comment="band 11">
        <r>  0.4168  0.0000  0.0000  0.0000  0.0000  0.0000  0.0547  0.0000  0.1642 </r>
       </set>
       <set comment="band 12">
        <r>  0.0000  0.0000  0.0000  0.0000  0.0000  0.0000  0.0000  0.0000  0.0000 </r>
       </set>
      </set>
     </set>
    </set>
   </array>
  </projected>
 </calculation>
 <structure name="finalpos" >
  <crystal>
   <varray name="basis" >
    <v>       1.81000000      1.81000000      0.00000000</v>
    <v>       0.00000000      1.81000000      1.81000000</v>
    <v>       1.81000000      0.00000000      1.81000000</v>
   </varray>
   <i name="volume">     11.85948200</i>
   <varray name="rec_basis" >
    <v>       0.27624309      0.27624309     -0.27624309</v>
    <v>      -0.27624309      0.27624309      0.27624309</v>
    <v>       0.27624309     -0.27624309      0.27624309</v>
   </varray>
  </crystal>
  <varray name="positions" >
   <v>       0.00000000      0.00000000      0.00000000</v>
  </varray>
 </structure>
</modeling>
