<?xml version="1.0" encoding="ISO-8859-1"?>
<modeling>
 <generator>
  <i name="program" type="string">vasp</i>
  <i name="version" type="string">4.6.28 </i>
  <i name="subversion" type="string">25Jul05 complex  parallel</i>
  <i name="platform" type="string">LinuxIFC</i>
  <i name="date" type="string">2019 01 20</i>
  <i name="time" type="string">16:02:27</i>
 </generator>
 <incar>
  <i type="string" name="PREC">medium</i>
  <i type="int" name="ICHARG">    11</i>
  <i type="int" name="ISMEAR">     0</i>
  <i name="SIGMA">      0.01000000</i>
  <i type="logical" name="LORBIT"> F  </i>
 </incar>
 <kpoints>
  <generation param="listgenerated">
   <i name="divisions" type="int">      40</i>
   <v>       0.00000000      0.00000000      0.00000000</v>
   <v>       0.50000000      0.00000000      0.50000000</v>
   <v>       0.50000000      0.25000000      0.75000000</v>
   <v>       0.37500000      0.37500000      0.75000000</v>
   <v>       0.00000000      0.00000000      0.00000000</v>
   <v>       0.50000000      0.50000000      0.50000000</v>
   <v>       0.62500000      0.25000000      0.62500000</v>
   <v>       0.50000000      0.25000000      0.75000000</v>
   <v>       0.50000000      0.50000000      0.50000000</v>
   <v>       0.62500000      0.25000000      0.62500000</v>
   <v>       0.50000000      0.00000000      0.50000000</v>
  </generation>
  <varray name="kpointlist" >
   <v>       0.00000000      0.00000000      0.00000000</v>
   <v>       0.01282051      0.00000000      0.01282051</v>
   <v>       0.02564103      0.00000000      0.02564103</v>
   <v>       0.03846154      0.00000000      0.03846154</v>
   <v>       0.05128205      0.00000000      0.05128205</v>
   <v>       0.06410256      0.00000000      0.06410256</v>
   <v>       0.07692308      0.00000000      0.07692308</v>
   <v>       0.08974359      0.00000000      0.08974359</v>
   <v>       0.10256410      0.00000000      0.10256410</v>
   <v>       0.11538462      0.00000000      0.11538462</v>
   <v>       0.12820513      0.00000000      0.12820513</v>
   <v>       0.14102564      0.00000000      0.14102564</v>
   <v>       0.15384615      0.00000000      0.15384615</v>
   <v>       0.16666667      0.00000000      0.16666667</v>
   <v>       0.17948718      0.00000000      0.17948718</v>
   <v>       0.19230769      0.00000000      0.19230769</v>
   <v>       0.20512821      0.00000000      0.20512821</v>
   <v>       0.21794872      0.00000000      0.21794872</v>
   <v>       0.23076923      0.00000000      0.23076923</v>
   <v>       0.24358974      0.00000000      0.24358974</v>
   <v>       0.25641026      0.00000000      0.25641026</v>
   <v>       0.26923077      0.00000000      0.26923077</v>
   <v>       0.28205128      0.00000000      0.28205128</v>
   <v>       0.29487179      0.00000000      0.29487179</v>
   <v>       0.30769231      0.00000000      0.30769231</v>
   <v>       0.32051282      0.00000000      0.32051282</v>
   <v>       0.33333333      0.00000000      0.33333333</v>
   <v>       0.34615385      0.00000000      0.34615385</v>
   <v>       0.35897436      0.00000000      0.35897436</v>
   <v>       0.37179487      0.00000000      0.37179487</v>
   <v>       0.38461538      0.00000000      0.38461538</v>
   <v>       0.39743590      0.00000000      0.39743590</v>
   <v>       0.41025641      0.00000000      0.41025641</v>
   <v>       0.42307692      0.00000000      0.42307692</v>
   <v>       0.43589744      0.00000000      0.43589744</v>
   <v>       0.44871795      0.00000000      0.44871795</v>
   <v>       0.46153846      0.00000000      0.46153846</v>
   <v>       0.47435897      0.00000000      0.47435897</v>
   <v>       0.48717949      0.00000000      0.48717949</v>
   <v>       0.50000000      0.00000000      0.50000000</v>
   <v>       0.50000000      0.00000000      0.50000000</v>
   <v>       0.50000000      0.00641026      0.50641026</v>
   <v>       0.50000000      0.01282051      0.51282051</v>
   <v>       0.50000000      0.01923077      0.51923077</v>
   <v>       0.50000000      0.02564103      0.52564103</v>
   <v>       0.50000000      0.03205128      0.53205128</v>
   <v>       0.50000000      0.03846154      0.53846154</v>
   <v>       0.50000000      0.04487179      0.54487179</v>
   <v>       0.50000000      0.05128205      0.55128205</v>
   <v>       0.50000000      0.05769231      0.55769231</v>
   <v>       0.50000000      0.06410256      0.56410256</v>
   <v>       0.50000000      0.07051282      0.57051282</v>
   <v>       0.50000000      0.07692308      0.57692308</v>
   <v>       0.50000000      0.08333333      0.58333333</v>
   <v>       0.50000000      0.08974359      0.58974359</v>
   <v>       0.50000000      0.09615385      0.59615385</v>
   <v>       0.50000000      0.10256410      0.60256410</v>
   <v>       0.50000000      0.10897436      0.60897436</v>
   <v>       0.50000000      0.11538462      0.61538462</v>
   <v>       0.50000000      0.12179487      0.62179487</v>
   <v>       0.50000000      0.12820513      0.62820513</v>
   <v>       0.50000000      0.13461538      0.63461538</v>
   <v>       0.50000000      0.14102564      0.64102564</v>
   <v>       0.50000000      0.14743590      0.64743590</v>
   <v>       0.50000000      0.15384615      0.65384615</v>
   <v>       0.50000000      0.16025641      0.66025641</v>
   <v>       0.50000000      0.16666667      0.66666667</v>
   <v>       0.50000000      0.17307692      0.67307692</v>
   <v>       0.50000000      0.17948718      0.67948718</v>
   <v>       0.50000000      0.18589744      0.68589744</v>
   <v>       0.50000000      0.19230769      0.69230769</v>
   <v>       0.50000000      0.19871795      0.69871795</v>
   <v>       0.50000000      0.20512821      0.70512821</v>
   <v>       0.50000000      0.21153846      0.71153846</v>
   <v>       0.50000000      0.21794872      0.71794872</v>
   <v>       0.50000000      0.22435897      0.72435897</v>
   <v>       0.50000000      0.23076923      0.73076923</v>
   <v>       0.50000000      0.23717949      0.73717949</v>
   <v>       0.50000000      0.24358974      0.74358974</v>
   <v>       0.50000000      0.25000000      0.75000000</v>
   <v>       0.50000000      0.25000000      0.75000000</v>
   <v>       0.49679487      0.25320513      0.75000000</v>
   <v>       0.49358974      0.25641026      0.75000000</v>
   <v>       0.49038462      0.25961538      0.75000000</v>
   <v>       0.48717949      0.26282051      0.75000000</v>
   <v>       0.48397436      0.26602564      0.75000000</v>
   <v>       0.48076923      0.26923077      0.75000000</v>
   <v>       0.47756410      0.27243590      0.75000000</v>
   <v>       0.47435897      0.27564103      0.75000000</v>
   <v>       0.47115385      0.27884615      0.75000000</v>
   <v>       0.46794872      0.28205128      0.75000000</v>
   <v>       0.46474359      0.28525641      0.75000000</v>
   <v>       0.46153846      0.28846154      0.75000000</v>
   <v>       0.45833333      0.29166667      0.75000000</v>
   <v>       0.45512821      0.29487179      0.75000000</v>
   <v>       0.45192308      0.29807692      0.75000000</v>
   <v>       0.44871795      0.30128205      0.75000000</v>
   <v>       0.44551282      0.30448718      0.75000000</v>
   <v>       0.44230769      0.30769231      0.75000000</v>
   <v>       0.43910256      0.31089744      0.75000000</v>
   <v>       0.43589744      0.31410256      0.75000000</v>
   <v>       0.43269231      0.31730769      0.75000000</v>
   <v>       0.42948718      0.32051282      0.75000000</v>
   <v>       0.42628205      0.32371795      0.75000000</v>
   <v>       0.42307692      0.32692308      0.75000000</v>
   <v>       0.41987179      0.33012821      0.75000000</v>
   <v>       0.41666667      0.33333333      0.75000000</v>
   <v>       0.41346154      0.33653846      0.75000000</v>
   <v>       0.41025641      0.33974359      0.75000000</v>
   <v>       0.40705128      0.34294872      0.75000000</v>
   <v>       0.40384615      0.34615385      0.75000000</v>
   <v>       0.40064103      0.34935897      0.75000000</v>
   <v>       0.39743590      0.35256410      0.75000000</v>
   <v>       0.39423077      0.35576923      0.75000000</v>
   <v>       0.39102564      0.35897436      0.75000000</v>
   <v>       0.38782051      0.36217949      0.75000000</v>
   <v>       0.38461538      0.36538462      0.75000000</v>
   <v>       0.38141026      0.36858974      0.75000000</v>
   <v>       0.37820513      0.37179487      0.75000000</v>
   <v>       0.37500000      0.37500000      0.75000000</v>
   <v>       0.37500000      0.37500000      0.75000000</v>
   <v>       0.36538462      0.36538462      0.73076923</v>
   <v>       0.35576923      0.35576923      0.71153846</v>
   <v>       0.34615385      0.34615385      0.69230769</v>
   <v>       0.33653846      0.33653846      0.67307692</v>
   <v>       0.32692308      0.32692308      0.65384615</v>
   <v>       0.31730769      0.31730769      0.63461538</v>
   <v>       0.30769231      0.30769231      0.61538462</v>
   <v>       0.29807692      0.29807692      0.59615385</v>
   <v>       0.28846154      0.28846154      0.57692308</v>
   <v>       0.27884615      0.27884615      0.55769231</v>
   <v>       0.26923077      0.26923077      0.53846154</v>
   <v>       0.25961538      0.25961538      0.51923077</v>
   <v>       0.25000000      0.25000000      0.50000000</v>
   <v>       0.24038462      0.24038462      0.48076923</v>
   <v>       0.23076923      0.23076923      0.46153846</v>
   <v>       0.22115385      0.22115385      0.44230769</v>
   <v>       0.21153846      0.21153846      0.42307692</v>
   <v>       0.20192308      0.20192308      0.40384615</v>
   <v>       0.19230769      0.19230769      0.38461538</v>
   <v>       0.18269231      0.18269231      0.36538462</v>
   <v>       0.17307692      0.17307692      0.34615385</v>
   <v>       0.16346154      0.16346154      0.32692308</v>
   <v>       0.15384615      0.15384615      0.30769231</v>
   <v>       0.14423077      0.14423077      0.28846154</v>
   <v>       0.13461538      0.13461538      0.26923077</v>
   <v>       0.12500000      0.12500000      0.25000000</v>
   <v>       0.11538462      0.11538462      0.23076923</v>
   <v>       0.10576923      0.10576923      0.21153846</v>
   <v>       0.09615385      0.09615385      0.19230769</v>
   <v>       0.08653846      0.08653846      0.17307692</v>
   <v>       0.07692308      0.07692308      0.15384615</v>
   <v>       0.06730769      0.06730769      0.13461538</v>
   <v>       0.05769231      0.05769231      0.11538462</v>
   <v>       0.04807692      0.04807692      0.09615385</v>
   <v>       0.03846154      0.03846154      0.07692308</v>
   <v>       0.02884615      0.02884615      0.05769231</v>
   <v>       0.01923077      0.01923077      0.03846154</v>
   <v>       0.00961538      0.00961538      0.01923077</v>
   <v>      -0.00000000     -0.00000000     -0.00000000</v>
   <v>       0.00000000      0.00000000      0.00000000</v>
   <v>       0.01282051      0.01282051      0.01282051</v>
   <v>       0.02564103      0.02564103      0.02564103</v>
   <v>       0.03846154      0.03846154      0.03846154</v>
   <v>       0.05128205      0.05128205      0.05128205</v>
   <v>       0.06410256      0.06410256      0.06410256</v>
   <v>       0.07692308      0.07692308      0.07692308</v>
   <v>       0.08974359      0.08974359      0.08974359</v>
   <v>       0.10256410      0.10256410      0.10256410</v>
   <v>       0.11538462      0.11538462      0.11538462</v>
   <v>       0.12820513      0.12820513      0.12820513</v>
   <v>       0.14102564      0.14102564      0.14102564</v>
   <v>       0.15384615      0.15384615      0.15384615</v>
   <v>       0.16666667      0.16666667      0.16666667</v>
   <v>       0.17948718      0.17948718      0.17948718</v>
   <v>       0.19230769      0.19230769      0.19230769</v>
   <v>       0.20512821      0.20512821      0.20512821</v>
   <v>       0.21794872      0.21794872      0.21794872</v>
   <v>       0.23076923      0.23076923      0.23076923</v>
   <v>       0.24358974      0.24358974      0.24358974</v>
   <v>       0.25641026      0.25641026      0.25641026</v>
   <v>       0.26923077      0.26923077      0.26923077</v>
   <v>       0.28205128      0.28205128      0.28205128</v>
   <v>       0.29487179      0.29487179      0.29487179</v>
   <v>       0.30769231      0.30769231      0.30769231</v>
   <v>       0.32051282      0.32051282      0.32051282</v>
   <v>       0.33333333      0.33333333      0.33333333</v>
   <v>       0.34615385      0.34615385      0.34615385</v>
   <v>       0.35897436      0.35897436      0.35897436</v>
   <v>       0.37179487      0.37179487      0.37179487</v>
   <v>       0.38461538      0.38461538      0.38461538</v>
   <v>       0.39743590      0.39743590      0.39743590</v>
   <v>       0.41025641      0.41025641      0.41025641</v>
   <v>       0.42307692      0.42307692      0.42307692</v>
   <v>       0.43589744      0.43589744      0.43589744</v>
   <v>       0.44871795      0.44871795      0.44871795</v>
   <v>       0.46153846      0.46153846      0.46153846</v>
   <v>       0.47435897      0.47435897      0.47435897</v>
   <v>       0.48717949      0.48717949      0.48717949</v>
   <v>       0.50000000      0.50000000      0.50000000</v>
   <v>       0.50000000      0.50000000      0.50000000</v>
   <v>       0.50320513      0.49358974      0.50320513</v>
   <v>       0.50641026      0.48717949      0.50641026</v>
   <v>       0.50961538      0.48076923      0.50961538</v>
   <v>       0.51282051      0.47435897      0.51282051</v>
   <v>       0.51602564      0.46794872      0.51602564</v>
   <v>       0.51923077      0.46153846      0.51923077</v>
   <v>       0.52243590      0.45512821      0.52243590</v>
   <v>       0.52564103      0.44871795      0.52564103</v>
   <v>       0.52884615      0.44230769      0.52884615</v>
   <v>       0.53205128      0.43589744      0.53205128</v>
   <v>       0.53525641      0.42948718      0.53525641</v>
   <v>       0.53846154      0.42307692      0.53846154</v>
   <v>       0.54166667      0.41666667      0.54166667</v>
   <v>       0.54487179      0.41025641      0.54487179</v>
   <v>       0.54807692      0.40384615      0.54807692</v>
   <v>       0.55128205      0.39743590      0.55128205</v>
   <v>       0.55448718      0.39102564      0.55448718</v>
   <v>       0.55769231      0.38461538      0.55769231</v>
   <v>       0.56089744      0.37820513      0.56089744</v>
   <v>       0.56410256      0.37179487      0.56410256</v>
   <v>       0.56730769      0.36538462      0.56730769</v>
   <v>       0.57051282      0.35897436      0.57051282</v>
   <v>       0.57371795      0.35256410      0.57371795</v>
   <v>       0.57692308      0.34615385      0.57692308</v>
   <v>       0.58012821      0.33974359      0.58012821</v>
   <v>       0.58333333      0.33333333      0.58333333</v>
   <v>       0.58653846      0.32692308      0.58653846</v>
   <v>       0.58974359      0.32051282      0.58974359</v>
   <v>       0.59294872      0.31410256      0.59294872</v>
   <v>       0.59615385      0.30769231      0.59615385</v>
   <v>       0.59935897      0.30128205      0.59935897</v>
   <v>       0.60256410      0.29487179      0.60256410</v>
   <v>       0.60576923      0.28846154      0.60576923</v>
   <v>       0.60897436      0.28205128      0.60897436</v>
   <v>       0.61217949      0.27564103      0.61217949</v>
   <v>       0.61538462      0.26923077      0.61538462</v>
   <v>       0.61858974      0.26282051      0.61858974</v>
   <v>       0.62179487      0.25641026      0.62179487</v>
   <v>       0.62500000      0.25000000      0.62500000</v>
   <v>       0.62500000      0.25000000      0.62500000</v>
   <v>       0.62179487      0.25000000      0.62820513</v>
   <v>       0.61858974      0.25000000      0.63141026</v>
   <v>       0.61538462      0.25000000      0.63461538</v>
   <v>       0.61217949      0.25000000      0.63782051</v>
   <v>       0.60897436      0.25000000      0.64102564</v>
   <v>       0.60576923      0.25000000      0.64423077</v>
   <v>       0.60256410      0.25000000      0.64743590</v>
   <v>       0.59935897      0.25000000      0.65064103</v>
   <v>       0.59615385      0.25000000      0.65384615</v>
   <v>       0.59294872      0.25000000      0.65705128</v>
   <v>       0.58974359      0.25000000      0.66025641</v>
   <v>       0.58653846      0.25000000      0.66346154</v>
   <v>       0.58333333      0.25000000      0.66666667</v>
   <v>       0.58012821      0.25000000      0.66987179</v>
   <v>       0.57692308      0.25000000      0.67307692</v>
   <v>       0.57371795      0.25000000      0.67628205</v>
   <v>       0.57051282      0.25000000      0.67948718</v>
   <v>       0.56730769      0.25000000      0.68269231</v>
   <v>       0.56410256      0.25000000      0.68589744</v>
   <v>       0.56089744      0.25000000      0.68910256</v>
   <v>       0.55769231      0.25000000      0.69230769</v>
   <v>       0.55448718      0.25000000      0.69551282</v>
   <v>       0.55128205      0.25000000      0.69871795</v>
   <v>       0.54807692      0.25000000      0.70192308</v>
   <v>       0.54487179      0.25000000      0.70512821</v>
   <v>       0.54166667      0.25000000      0.70833333</v>
   <v>       0.53846154      0.25000000      0.71153846</v>
   <v>       0.53525641      0.25000000      0.71474359</v>
   <v>       0.53205128      0.25000000      0.71794872</v>
   <v>       0.52884615      0.25000000      0.72115385</v>
   <v>       0.52564103      0.25000000      0.72435897</v>
   <v>       0.52243590      0.25000000      0.72756410</v>
   <v>       0.51923077      0.25000000      0.73076923</v>
   <v>       0.51602564      0.25000000      0.73397436</v>
   <v>       0.51282051      0.25000000      0.73717949</v>
   <v>       0.50961538      0.25000000      0.74038462</v>
   <v>       0.50641026      0.25000000      0.74358974</v>
   <v>       0.50320513      0.25000000      0.74679487</v>
   <v>       0.50000000      0.25000000      0.75000000</v>
   <v>       0.50000000      0.25000000      0.75000000</v>
   <v>       0.50000000      0.25641026      0.74358974</v>
   <v>       0.50000000      0.26282051      0.73717949</v>
   <v>       0.50000000      0.26923077      0.73076923</v>
   <v>       0.50000000      0.27564103      0.72435897</v>
   <v>       0.50000000      0.28205128      0.71794872</v>
   <v>       0.50000000      0.28846154      0.71153846</v>
   <v>       0.50000000      0.29487179      0.70512821</v>
   <v>       0.50000000      0.30128205      0.69871795</v>
   <v>       0.50000000      0.30769231      0.69230769</v>
   <v>       0.50000000      0.31410256      0.68589744</v>
   <v>       0.50000000      0.32051282      0.67948718</v>
   <v>       0.50000000      0.32692308      0.67307692</v>
   <v>       0.50000000      0.33333333      0.66666667</v>
   <v>       0.50000000      0.33974359      0.66025641</v>
   <v>       0.50000000      0.34615385      0.65384615</v>
   <v>       0.50000000      0.35256410      0.64743590</v>
   <v>       0.50000000      0.35897436      0.64102564</v>
   <v>       0.50000000      0.36538462      0.63461538</v>
   <v>       0.50000000      0.37179487      0.62820513</v>
   <v>       0.50000000      0.37820513      0.62179487</v>
   <v>       0.50000000      0.38461538      0.61538462</v>
   <v>       0.50000000      0.39102564      0.60897436</v>
   <v>       0.50000000      0.39743590      0.60256410</v>
   <v>       0.50000000      0.40384615      0.59615385</v>
   <v>       0.50000000      0.41025641      0.58974359</v>
   <v>       0.50000000      0.41666667      0.58333333</v>
   <v>       0.50000000      0.42307692      0.57692308</v>
   <v>       0.50000000      0.42948718      0.57051282</v>
   <v>       0.50000000      0.43589744      0.56410256</v>
   <v>       0.50000000      0.44230769      0.55769231</v>
   <v>       0.50000000      0.44871795      0.55128205</v>
   <v>       0.50000000      0.45512821      0.54487179</v>
   <v>       0.50000000      0.46153846      0.53846154</v>
   <v>       0.50000000      0.46794872      0.53205128</v>
   <v>       0.50000000      0.47435897      0.52564103</v>
   <v>       0.50000000      0.48076923      0.51923077</v>
   <v>       0.50000000      0.48717949      0.51282051</v>
   <v>       0.50000000      0.49358974      0.50641026</v>
   <v>       0.50000000      0.50000000      0.50000000</v>
   <v>       0.50000000      0.50000000      0.50000000</v>
   <v>       0.49679487      0.49679487      0.50641026</v>
   <v>       0.49358974      0.49358974      0.51282051</v>
   <v>       0.49038462      0.49038462      0.51923077</v>
   <v>       0.48717949      0.48717949      0.52564103</v>
   <v>       0.48397436      0.48397436      0.53205128</v>
   <v>       0.48076923      0.48076923      0.53846154</v>
   <v>       0.47756410      0.47756410      0.54487179</v>
   <v>       0.47435897      0.47435897      0.55128205</v>
   <v>       0.47115385      0.47115385      0.55769231</v>
   <v>       0.46794872      0.46794872      0.56410256</v>
   <v>       0.46474359      0.46474359      0.57051282</v>
   <v>       0.46153846      0.46153846      0.57692308</v>
   <v>       0.45833333      0.45833333      0.58333333</v>
   <v>       0.45512821      0.45512821      0.58974359</v>
   <v>       0.45192308      0.45192308      0.59615385</v>
   <v>       0.44871795      0.44871795      0.60256410</v>
   <v>       0.44551282      0.44551282      0.60897436</v>
   <v>       0.44230769      0.44230769      0.61538462</v>
   <v>       0.43910256      0.43910256      0.62179487</v>
   <v>       0.43589744      0.43589744      0.62820513</v>
   <v>       0.43269231      0.43269231      0.63461538</v>
   <v>       0.42948718      0.42948718      0.64102564</v>
   <v>       0.42628205      0.42628205      0.64743590</v>
   <v>       0.42307692      0.42307692      0.65384615</v>
   <v>       0.41987179      0.41987179      0.66025641</v>
   <v>       0.41666667      0.41666667      0.66666667</v>
   <v>       0.41346154      0.41346154      0.67307692</v>
   <v>       0.41025641      0.41025641      0.67948718</v>
   <v>       0.40705128      0.40705128      0.68589744</v>
   <v>       0.40384615      0.40384615      0.69230769</v>
   <v>       0.40064103      0.40064103      0.69871795</v>
   <v>       0.39743590      0.39743590      0.70512821</v>
   <v>       0.39423077      0.39423077      0.71153846</v>
   <v>       0.39102564      0.39102564      0.71794872</v>
   <v>       0.38782051      0.38782051      0.72435897</v>
   <v>       0.38461538      0.38461538      0.73076923</v>
   <v>       0.38141026      0.38141026      0.73717949</v>
   <v>       0.37820513      0.37820513      0.74358974</v>
   <v>       0.37500000      0.37500000      0.75000000</v>
   <v>       0.62500000      0.25000000      0.62500000</v>
   <v>       0.62179487      0.24358974      0.62179487</v>
   <v>       0.61858974      0.23717949      0.61858974</v>
   <v>       0.61538462      0.23076923      0.61538462</v>
   <v>       0.61217949      0.22435897      0.61217949</v>
   <v>       0.60897436      0.21794872      0.60897436</v>
   <v>       0.60576923      0.21153846      0.60576923</v>
   <v>       0.60256410      0.20512821      0.60256410</v>
   <v>       0.59935897      0.19871795      0.59935897</v>
   <v>       0.59615385      0.19230769      0.59615385</v>
   <v>       0.59294872      0.18589744      0.59294872</v>
   <v>       0.58974359      0.17948718      0.58974359</v>
   <v>       0.58653846      0.17307692      0.58653846</v>
   <v>       0.58333333      0.16666667      0.58333333</v>
   <v>       0.58012821      0.16025641      0.58012821</v>
   <v>       0.57692308      0.15384615      0.57692308</v>
   <v>       0.57371795      0.14743590      0.57371795</v>
   <v>       0.57051282      0.14102564      0.57051282</v>
   <v>       0.56730769      0.13461538      0.56730769</v>
   <v>       0.56410256      0.12820513      0.56410256</v>
   <v>       0.56089744      0.12179487      0.56089744</v>
   <v>       0.55769231      0.11538462      0.55769231</v>
   <v>       0.55448718      0.10897436      0.55448718</v>
   <v>       0.55128205      0.10256410      0.55128205</v>
   <v>       0.54807692      0.09615385      0.54807692</v>
   <v>       0.54487179      0.08974359      0.54487179</v>
   <v>       0.54166667      0.08333333      0.54166667</v>
   <v>       0.53846154      0.07692308      0.53846154</v>
   <v>       0.53525641      0.07051282      0.53525641</v>
   <v>       0.53205128      0.06410256      0.53205128</v>
   <v>       0.52884615      0.05769231      0.52884615</v>
   <v>       0.52564103      0.05128205      0.52564103</v>
   <v>       0.52243590      0.04487179      0.52243590</v>
   <v>       0.51923077      0.03846154      0.51923077</v>
   <v>       0.51602564      0.03205128      0.51602564</v>
   <v>       0.51282051      0.02564103      0.51282051</v>
   <v>       0.50961538      0.01923077      0.50961538</v>
   <v>       0.50641026      0.01282051      0.50641026</v>
   <v>       0.50320513      0.00641026      0.50320513</v>
   <v>       0.50000000      0.00000000      0.50000000</v>
  </varray>
  <varray name="weights" >
   <v>       0.00250000</v>
   <v>       0.00250000</v>
   <v>       0.00250000</v>
   <v>       0.00250000</v>
   <v>       0.00250000</v>
   <v>       0.00250000</v>
   <v>       0.00250000</v>
   <v>       0.00250000</v>
   <v>       0.00250000</v>
   <v>       0.00250000</v>
   <v>       0.00250000</v>
   <v>       0.00250000</v>
   <v>       0.00250000</v>
   <v>       0.00250000</v>
   <v>       0.00250000</v>
   <v>       0.00250000</v>
   <v>       0.00250000</v>
   <v>       0.00250000</v>
   <v>       0.00250000</v>
   <v>       0.00250000</v>
   <v>       0.00250000</v>
   <v>       0.00250000</v>
   <v>       0.00250000</v>
   <v>       0.00250000</v>
   <v>       0.00250000</v>
   <v>       0.00250000</v>
   <v>       0.00250000</v>
   <v>       0.00250000</v>
   <v>       0.00250000</v>
   <v>       0.00250000</v>
   <v>       0.00250000</v>
   <v>       0.00250000</v>
   <v>       0.00250000</v>
   <v>       0.00250000</v>
   <v>       0.00250000</v>
   <v>       0.00250000</v>
   <v>       0.00250000</v>
   <v>       0.00250000</v>
   <v>       0.00250000</v>
   <v>       0.00250000</v>
   <v>       0.00250000</v>
   <v>       0.00250000</v>
   <v>       0.00250000</v>
   <v>       0.00250000</v>
   <v>       0.00250000</v>
   <v>       0.00250000</v>
   <v>       0.00250000</v>
   <v>       0.00250000</v>
   <v>       0.00250000</v>
   <v>       0.00250000</v>
   <v>       0.00250000</v>
   <v>       0.00250000</v>
   <v>       0.00250000</v>
   <v>       0.00250000</v>
   <v>       0.00250000</v>
   <v>       0.00250000</v>
   <v>       0.00250000</v>
   <v>       0.00250000</v>
   <v>       0.00250000</v>
   <v>       0.00250000</v>
   <v>       0.00250000</v>
   <v>       0.00250000</v>
   <v>       0.00250000</v>
   <v>       0.00250000</v>
   <v>       0.00250000</v>
   <v>       0.00250000</v>
   <v>       0.00250000</v>
   <v>       0.00250000</v>
   <v>       0.00250000</v>
   <v>       0.00250000</v>
   <v>       0.00250000</v>
   <v>       0.00250000</v>
   <v>       0.00250000</v>
   <v>       0.00250000</v>
   <v>       0.00250000</v>
   <v>       0.00250000</v>
   <v>       0.00250000</v>
   <v>       0.00250000</v>
   <v>       0.00250000</v>
   <v>       0.00250000</v>
   <v>       0.00250000</v>
   <v>       0.00250000</v>
   <v>       0.00250000</v>
   <v>       0.00250000</v>
   <v>       0.00250000</v>
   <v>       0.00250000</v>
   <v>       0.00250000</v>
   <v>       0.00250000</v>
   <v>       0.00250000</v>
   <v>       0.00250000</v>
   <v>       0.00250000</v>
   <v>       0.00250000</v>
   <v>       0.00250000</v>
   <v>       0.00250000</v>
   <v>       0.00250000</v>
   <v>       0.00250000</v>
   <v>       0.00250000</v>
   <v>       0.00250000</v>
   <v>       0.00250000</v>
   <v>       0.00250000</v>
   <v>       0.00250000</v>
   <v>       0.00250000</v>
   <v>       0.00250000</v>
   <v>       0.00250000</v>
   <v>       0.00250000</v>
   <v>       0.00250000</v>
   <v>       0.00250000</v>
   <v>       0.00250000</v>
   <v>       0.00250000</v>
   <v>       0.00250000</v>
   <v>       0.00250000</v>
   <v>       0.00250000</v>
   <v>       0.00250000</v>
   <v>       0.00250000</v>
   <v>       0.00250000</v>
   <v>       0.00250000</v>
   <v>       0.00250000</v>
   <v>       0.00250000</v>
   <v>       0.00250000</v>
   <v>       0.00250000</v>
   <v>       0.00250000</v>
   <v>       0.00250000</v>
   <v>       0.00250000</v>
   <v>       0.00250000</v>
   <v>       0.00250000</v>
   <v>       0.00250000</v>
   <v>       0.00250000</v>
   <v>       0.00250000</v>
   <v>       0.00250000</v>
   <v>       0.00250000</v>
   <v>       0.00250000</v>
   <v>       0.00250000</v>
   <v>       0.00250000</v>
   <v>       0.00250000</v>
   <v>       0.00250000</v>
   <v>       0.00250000</v>
   <v>       0.00250000</v>
   <v>       0.00250000</v>
   <v>       0.00250000</v>
   <v>       0.00250000</v>
   <v>       0.00250000</v>
   <v>       0.00250000</v>
   <v>       0.00250000</v>
   <v>       0.00250000</v>
   <v>       0.00250000</v>
   <v>       0.00250000</v>
   <v>       0.00250000</v>
   <v>       0.00250000</v>
   <v>       0.00250000</v>
   <v>       0.00250000</v>
   <v>       0.00250000</v>
   <v>       0.00250000</v>
   <v>       0.00250000</v>
   <v>       0.00250000</v>
   <v>       0.00250000</v>
   <v>       0.00250000</v>
   <v>       0.00250000</v>
   <v>       0.00250000</v>
   <v>       0.00250000</v>
   <v>       0.00250000</v>
   <v>       0.00250000</v>
   <v>       0.00250000</v>
   <v>       0.00250000</v>
   <v>       0.00250000</v>
   <v>       0.00250000</v>
   <v>       0.00250000</v>
   <v>       0.00250000</v>
   <v>       0.00250000</v>
   <v>       0.00250000</v>
   <v>       0.00250000</v>
   <v>       0.00250000</v>
   <v>       0.00250000</v>
   <v>       0.00250000</v>
   <v>       0.00250000</v>
   <v>       0.00250000</v>
   <v>       0.00250000</v>
   <v>       0.00250000</v>
   <v>       0.00250000</v>
   <v>       0.00250000</v>
   <v>       0.00250000</v>
   <v>       0.00250000</v>
   <v>       0.00250000</v>
   <v>       0.00250000</v>
   <v>       0.00250000</v>
   <v>       0.00250000</v>
   <v>       0.00250000</v>
   <v>       0.00250000</v>
   <v>       0.00250000</v>
   <v>       0.00250000</v>
   <v>       0.00250000</v>
   <v>       0.00250000</v>
   <v>       0.00250000</v>
   <v>       0.00250000</v>
   <v>       0.00250000</v>
   <v>       0.00250000</v>
   <v>       0.00250000</v>
   <v>       0.00250000</v>
   <v>       0.00250000</v>
   <v>       0.00250000</v>
   <v>       0.00250000</v>
   <v>       0.00250000</v>
   <v>       0.00250000</v>
   <v>       0.00250000</v>
   <v>       0.00250000</v>
   <v>       0.00250000</v>
   <v>       0.00250000</v>
   <v>       0.00250000</v>
   <v>       0.00250000</v>
   <v>       0.00250000</v>
   <v>       0.00250000</v>
   <v>       0.00250000</v>
   <v>       0.00250000</v>
   <v>       0.00250000</v>
   <v>       0.00250000</v>
   <v>       0.00250000</v>
   <v>       0.00250000</v>
   <v>       0.00250000</v>
   <v>       0.00250000</v>
   <v>       0.00250000</v>
   <v>       0.00250000</v>
   <v>       0.00250000</v>
   <v>       0.00250000</v>
   <v>       0.00250000</v>
   <v>       0.00250000</v>
   <v>       0.00250000</v>
   <v>       0.00250000</v>
   <v>       0.00250000</v>
   <v>       0.00250000</v>
   <v>       0.00250000</v>
   <v>       0.00250000</v>
   <v>       0.00250000</v>
   <v>       0.00250000</v>
   <v>       0.00250000</v>
   <v>       0.00250000</v>
   <v>       0.00250000</v>
   <v>       0.00250000</v>
   <v>       0.00250000</v>
   <v>       0.00250000</v>
   <v>       0.00250000</v>
   <v>       0.00250000</v>
   <v>       0.00250000</v>
   <v>       0.00250000</v>
   <v>       0.00250000</v>
   <v>       0.00250000</v>
   <v>       0.00250000</v>
   <v>       0.00250000</v>
   <v>       0.00250000</v>
   <v>       0.00250000</v>
   <v>       0.00250000</v>
   <v>       0.00250000</v>
   <v>       0.00250000</v>
   <v>       0.00250000</v>
   <v>       0.00250000</v>
   <v>       0.00250000</v>
   <v>       0.00250000</v>
   <v>       0.00250000</v>
   <v>       0.00250000</v>
   <v>       0.00250000</v>
   <v>       0.00250000</v>
   <v>       0.00250000</v>
   <v>       0.00250000</v>
   <v>       0.00250000</v>
   <v>       0.00250000</v>
   <v>       0.00250000</v>
   <v>       0.00250000</v>
   <v>       0.00250000</v>
   <v>       0.00250000</v>
   <v>       0.00250000</v>
   <v>       0.00250000</v>
   <v>       0.00250000</v>
   <v>       0.00250000</v>
   <v>       0.00250000</v>
   <v>       0.00250000</v>
   <v>       0.00250000</v>
   <v>       0.00250000</v>
   <v>       0.00250000</v>
   <v>       0.00250000</v>
   <v>       0.00250000</v>
   <v>       0.00250000</v>
   <v>       0.00250000</v>
   <v>       0.00250000</v>
   <v>       0.00250000</v>
   <v>       0.00250000</v>
   <v>       0.00250000</v>
   <v>       0.00250000</v>
   <v>       0.00250000</v>
   <v>       0.00250000</v>
   <v>       0.00250000</v>
   <v>       0.00250000</v>
   <v>       0.00250000</v>
   <v>       0.00250000</v>
   <v>       0.00250000</v>
   <v>       0.00250000</v>
   <v>       0.00250000</v>
   <v>       0.00250000</v>
   <v>       0.00250000</v>
   <v>       0.00250000</v>
   <v>       0.00250000</v>
   <v>       0.00250000</v>
   <v>       0.00250000</v>
   <v>       0.00250000</v>
   <v>       0.00250000</v>
   <v>       0.00250000</v>
   <v>       0.00250000</v>
   <v>       0.00250000</v>
   <v>       0.00250000</v>
   <v>       0.00250000</v>
   <v>       0.00250000</v>
   <v>       0.00250000</v>
   <v>       0.00250000</v>
   <v>       0.00250000</v>
   <v>       0.00250000</v>
   <v>       0.00250000</v>
   <v>       0.00250000</v>
   <v>       0.00250000</v>
   <v>       0.00250000</v>
   <v>       0.00250000</v>
   <v>       0.00250000</v>
   <v>       0.00250000</v>
   <v>       0.00250000</v>
   <v>       0.00250000</v>
   <v>       0.00250000</v>
   <v>       0.00250000</v>
   <v>       0.00250000</v>
   <v>       0.00250000</v>
   <v>       0.00250000</v>
   <v>       0.00250000</v>
   <v>       0.00250000</v>
   <v>       0.00250000</v>
   <v>       0.00250000</v>
   <v>       0.00250000</v>
   <v>       0.00250000</v>
   <v>       0.00250000</v>
   <v>       0.00250000</v>
   <v>       0.00250000</v>
   <v>       0.00250000</v>
   <v>       0.00250000</v>
   <v>       0.00250000</v>
   <v>       0.00250000</v>
   <v>       0.00250000</v>
   <v>       0.00250000</v>
   <v>       0.00250000</v>
   <v>       0.00250000</v>
   <v>       0.00250000</v>
   <v>       0.00250000</v>
   <v>       0.00250000</v>
   <v>       0.00250000</v>
   <v>       0.00250000</v>
   <v>       0.00250000</v>
   <v>       0.00250000</v>
   <v>       0.00250000</v>
   <v>       0.00250000</v>
   <v>       0.00250000</v>
   <v>       0.00250000</v>
   <v>       0.00250000</v>
   <v>       0.00250000</v>
   <v>       0.00250000</v>
   <v>       0.00250000</v>
   <v>       0.00250000</v>
   <v>       0.00250000</v>
   <v>       0.00250000</v>
   <v>       0.00250000</v>
   <v>       0.00250000</v>
   <v>       0.00250000</v>
   <v>       0.00250000</v>
   <v>       0.00250000</v>
   <v>       0.00250000</v>
   <v>       0.00250000</v>
   <v>       0.00250000</v>
   <v>       0.00250000</v>
   <v>       0.00250000</v>
   <v>       0.00250000</v>
   <v>       0.00250000</v>
   <v>       0.00250000</v>
   <v>       0.00250000</v>
   <v>       0.00250000</v>
   <v>       0.00250000</v>
   <v>       0.00250000</v>
   <v>       0.00250000</v>
   <v>       0.00250000</v>
   <v>       0.00250000</v>
   <v>       0.00250000</v>
   <v>       0.00250000</v>
   <v>       0.00250000</v>
   <v>       0.00250000</v>
   <v>       0.00250000</v>
   <v>       0.00250000</v>
   <v>       0.00250000</v>
   <v>       0.00250000</v>
   <v>       0.00250000</v>
   <v>       0.00250000</v>
   <v>       0.00250000</v>
   <v>       0.00250000</v>
   <v>       0.00250000</v>
   <v>       0.00250000</v>
   <v>       0.00250000</v>
   <v>       0.00250000</v>
   <v>       0.00250000</v>
   <v>       0.00250000</v>
   <v>       0.00250000</v>
  </varray>
 </kpoints>
 <parameters>
  <separator name="general" >
   <i type="string" name="SYSTEM">unknown system</i>
   <i type="logical" name="LCOMPAT"> F  </i>
  </separator>
  <separator name="electronic" >
   <i type="string" name="PREC">medium</i>
   <i name="ENMAX">    273.24600000</i>
   <i name="ENAUG">    516.45600000</i>
   <i name="EDIFF">      0.00010000</i>
   <i type="int" name="IALGO">    38</i>
   <i type="int" name="IWAVPR">    10</i>
   <i type="int" name="NBANDS">     9</i>
   <i name="NELECT">     11.00000000</i>
   <separator name="electronic smearing" >
    <i type="int" name="ISMEAR">     0</i>
    <i name="SIGMA">      0.01000000</i>
   </separator>
   <separator name="electronic projectors" >
    <i type="logical" name="LREAL"> F  </i>
    <v name="ROPT">      0.00000000</v>
    <i type="int" name="LMAXPAW">  -100</i>
    <i type="int" name="LMAXMIX">     2</i>
   </separator>
   <separator name="electronic startup" >
    <i type="int" name="ISTART">     1</i>
    <i type="int" name="ICHARG">    11</i>
    <i type="int" name="INIWAV">     1</i>
   </separator>
   <separator name="electronic spin" >
    <i type="int" name="ISPIN">     1</i>
    <i type="logical" name="LNONCOLLINEAR"> F  </i>
    <v name="MAGMOM">      1.00000000</v>
    <i name="NUPDOWN">     -1.00000000</i>
    <i type="logical" name="LSORBIT"> F  </i>
    <v name="SAXIS">      0.00000000      0.00000000      1.00000000</v>
    <i type="logical" name="LSPIRAL"> F  </i>
    <v name="QSPIRAL">      0.00000000      0.00000000      0.00000000</v>
    <i type="logical" name="LZEROZ"> F  </i>
   </separator>
   <separator name="electronic exchange-correlation" >
    <i type="string" name="GGA">--</i>
    <i type="int" name="VOSKOWN">     0</i>
    <i type="logical" name="LASPH"> F  </i>
    <i type="logical" name="LMETAGGA"> F  </i>
    <i type="string" name="GGA2">--</i>
   </separator>
   <separator name="electronic convergence" >
    <i type="int" name="NELM">    60</i>
    <i type="int" name="NELMDL">     0</i>
    <i type="int" name="NELMIN">     2</i>
    <i name="ENINI">    273.24600000</i>
    <separator name="electronic convergence detail" >
     <i type="logical" name="LDIAG"> T  </i>
     <i name="WEIMIN">      0.00000000</i>
     <i name="EBREAK">      0.00000278</i>
     <i name="DEPER">      0.30000000</i>
     <i type="int" name="NRMM">     4</i>
     <i name="TIME">      0.10000000</i>
    </separator>
   </separator>
   <separator name="electronic mixer" >
    <i name="AMIX">      0.40000000</i>
    <i name="BMIX">      1.00000000</i>
    <i name="AMIN">      0.10000000</i>
    <i name="AMIX_MAG">      1.60000000</i>
    <i name="BMIX_MAG">      1.00000000</i>
    <separator name="electronic mixer details" >
     <i type="int" name="IMIX">     4</i>
     <i type="int" name="MAXMIX">   -45</i>
     <i name="WC">    100.00000000</i>
     <i type="int" name="INIMIX">     1</i>
     <i type="int" name="MIXPRE">     1</i>
     <i type="int" name="MREMOVE">     5</i>
    </separator>
   </separator>
   <separator name="electronic dipolcorrection" >
    <i type="int" name="IDIPOL">     0</i>
    <i type="logical" name="LDIPOL"> F  </i>
    <v name="DIPOL">   -100.00000000</v>
    <i name="EFIELD">      0.00000000</i>
   </separator>
  </separator>
  <separator name="grids" >
   <i type="int" name="NGX">    10</i>
   <i type="int" name="NGY">    10</i>
   <i type="int" name="NGZ">    10</i>
   <i type="int" name="NGXF">    18</i>
   <i type="int" name="NGYF">    18</i>
   <i type="int" name="NGZF">    18</i>
   <i type="logical" name="ADDGRID"> F  </i>
  </separator>
  <separator name="ionic" >
   <i type="int" name="NSW">     0</i>
   <i type="int" name="IBRION">    -1</i>
   <i type="int" name="ISIF">     2</i>
   <i name="PSTRESS">      0.00000000</i>
   <i name="EDIFFG">      0.00100000</i>
   <i type="int" name="NFREE">     0</i>
   <i name="POTIM">      0.50000000</i>
   <i name="SMASS">     -3.00000000</i>
  </separator>
  <separator name="ionic md" >
   <i name="TEBEG">      0.00010000</i>
   <i name="TEEND">      0.00010000</i>
   <i type="int" name="NBLOCK">     1</i>
   <i type="int" name="KBLOCK">     1</i>
   <i type="int" name="NPACO">   256</i>
   <i name="APACO">     16.00000000</i>
  </separator>
  <separator name="symmetry" >
   <i type="int" name="ISYM">     2</i>
   <i name="SYMPREC">      0.00001000</i>
  </separator>
  <separator name="dos" >
   <i type="logical" name="LORBIT"> F  </i>
   <v name="RWIGS">     -1.00000000</v>
   <i type="int" name="NEDOS">   301</i>
   <i name="EMIN">     10.00000000</i>
   <i name="EMAX">    -10.00000000</i>
  </separator>
  <separator name="writing" >
   <i type="int" name="NWRITE">     2</i>
   <i type="logical" name="LWAVE"> T  </i>
   <i type="logical" name="LCHARG"> T  </i>
   <i type="logical" name="LPARD"> F  </i>
   <i type="logical" name="LVTOT"> F  </i>
   <i type="logical" name="LELF"> F  </i>
   <i type="logical" name="LOPTICS"> F  </i>
   <i name="STM">      0.00000000</i>
  </separator>
  <separator name="performance" >
   <i type="int" name="NPAR">     7</i>
   <i type="int" name="NSIM">     4</i>
   <i type="int" name="NBLK">    32</i>
   <i type="logical" name="LPLANE"> T  </i>
   <i type="logical" name="LCRITICAL_MEM"> F  </i>
   <i type="logical" name="LSCALAPACK"> F  </i>
   <i type="logical" name="LSCALU"> F  </i>
   <i type="logical" name="LASYNC"> F  </i>
  </separator>
  <separator name="miscellaneous" >
   <i type="int" name="IDIOT">     3</i>
   <i type="logical" name="LMUSIC"> F  </i>
   <v name="POMASS">     63.54600000</v>
   <i type="logical" name="LCORR"> T  </i>
  </separator>
  <i type="logical" name="LREAL_COMPAT"> F  </i>
  <i type="logical" name="GGA_COMPAT"> T  </i>
  <i type="logical" name="LBERRY"> F  </i>
  <i type="int" name="ICORELEVEL">     0</i>
  <i type="logical" name="LDAU"> F  </i>
  <i type="int" name="I_CONSTRAINED_M">     0</i>
 </parameters>
 <atominfo>
  <atoms>       1</atoms>
  <types>       1</types>
  <array name="atoms" >
   <dimension dim="1">ion</dimension>
   <field type="string">element</field>
   <field type="int">atomtype</field>
   <set>
    <rc><c>Cu</c><c>   1</c></rc>
   </set>
  </array>
  <array name="atomtypes" >
   <dimension dim="1">type</dimension>
   <field type="int">atomspertype</field>
   <field type="string">element</field>
   <field>mass</field>
   <field>valence</field>
   <field type="string">pseudopotential</field>
   <set>
    <rc><c>   1</c><c>Cu</c><c>     63.54600000</c><c>     11.00000000</c><c> PAW_GGA Cu 05Jan2001                   </c></rc>
   </set>
  </array>
 </atominfo>
 <structure name="initialpos" >
  <crystal>
   <varray name="basis" >
    <v>       1.81000000      1.81000000      0.00000000</v>
    <v>       0.00000000      1.81000000      1.81000000</v>
    <v>       1.81000000      0.00000000      1.81000000</v>
   </varray>
   <i name="volume">     11.85948200</i>
   <varray name="rec_basis" >
    <v>       0.27624309      0.27624309     -0.27624309</v>
    <v>      -0.27624309      0.27624309      0.27624309</v>
    <v>       0.27624309     -0.27624309      0.27624309</v>
   </varray>
  </crystal>
  <varray name="positions" >
   <v>       0.00000000      0.00000000      0.00000000</v>
  </varray>
 </structure>
 <calculation>
  <scstep>
   <time name="dav">    2.42    2.44</time>
   <time name="total">    2.42    2.45</time>
   <energy>
    <i name="alphaZ">    107.26033312</i>
    <i name="ewald">  -1103.39027675</i>
    <i name="hartreedc">   -305.12664560</i>
    <i name="XCdc">     42.62620031</i>
    <i name="pawpsdc">   1098.72194169</i>
    <i name="pawaedc">  -1243.98347020</i>
    <i name="eentropy">     -0.00000016</i>
    <i name="bandstr">      8.52103062</i>
    <i name="atom">   1393.03119264</i>
    <i name="e_fr_energy">     -2.33969433</i>
    <i name="e_wo_entrp">     -2.33969418</i>
    <i name="e_0_energy">     -2.33969426</i>
   </energy>
  </scstep>
  <scstep>
   <time name="dav">    2.72    2.72</time>
   <time name="total">    2.73    2.73</time>
   <energy>
    <i name="alphaZ">    107.26033312</i>
    <i name="ewald">  -1103.39027675</i>
    <i name="hartreedc">   -305.12664560</i>
    <i name="XCdc">     42.62620031</i>
    <i name="pawpsdc">   1098.72194169</i>
    <i name="pawaedc">  -1243.98347020</i>
    <i name="eentropy">     -0.00000016</i>
    <i name="bandstr">      8.52103019</i>
    <i name="atom">   1393.03119264</i>
    <i name="e_fr_energy">     -2.33969476</i>
    <i name="e_wo_entrp">     -2.33969460</i>
    <i name="e_0_energy">     -2.33969468</i>
   </energy>
  </scstep>
  <structure>
   <crystal>
    <varray name="basis" >
     <v>       1.81000000      1.81000000      0.00000000</v>
     <v>       0.00000000      1.81000000      1.81000000</v>
     <v>       1.81000000      0.00000000      1.81000000</v>
    </varray>
    <i name="volume">     11.85948200</i>
    <varray name="rec_basis" >
     <v>       0.27624309      0.27624309     -0.27624309</v>
     <v>      -0.27624309      0.27624309      0.27624309</v>
     <v>       0.27624309     -0.27624309      0.27624309</v>
    </varray>
   </crystal>
   <varray name="positions" >
    <v>       0.00000000      0.00000000      0.00000000</v>
   </varray>
  </structure>
  <varray name="forces" >
   <v>      -0.00000000     -0.00000000      0.00000000</v>
  </varray>
  <varray name="stress" >
   <v>     427.17628213     -0.00000000      0.00000000</v>
   <v>      -0.00000000    427.17628213      0.00000000</v>
   <v>       0.00000000     -0.00000000    427.17628213</v>
  </varray>
  <energy>
   <i name="e_fr_energy">     -2.33969476</i>
   <i name="e_wo_entrp">     -2.33969468</i>
   <i name="e_0_energy">     -0.00000016</i>
  </energy>
  <eigenvalues>
   <array>
    <dimension dim="1">band</dimension>
    <dimension dim="2">kpoint</dimension>
    <dimension dim="3">spin</dimension>
    <field>eigene</field>
    <field>occ</field>
    <set>
     <set comment="spin 1">
      <set comment="kpoint 1">
       <r>  -5.5492  1.0000</r>
       <r>   0.6482  1.0000</r>
       <r>   0.6482  1.0000</r>
       <r>   0.6482  1.0000</r>
       <r>   1.4503  1.0000</r>
       <r>   1.4503  1.0000</r>
       <r>  26.8873  0.0000</r>
       <r>  29.1205  0.0000</r>
       <r>  29.1206  0.0000</r>
       <r>  29.1207  0.0000</r>
       <r>  31.8923  0.0000</r>
       <r>  31.8924  0.0000</r>
       <r>  31.8926  0.0000</r>
       <r>  35.3407  0.0000</r>
      </set>
      <set comment="kpoint 2">
       <r>  -5.5413  1.0000</r>
       <r>   0.6454  1.0000</r>
       <r>   0.6484  1.0000</r>
       <r>   0.6484  1.0000</r>
       <r>   1.4466  1.0000</r>
       <r>   1.4512  1.0000</r>
       <r>  26.8532  0.0000</r>
       <r>  29.0095  0.0000</r>
       <r>  29.0096  0.0000</r>
       <r>  29.0851  0.0000</r>
       <r>  31.9355  0.0000</r>
       <r>  31.9715  0.0000</r>
       <r>  31.9718  0.0000</r>
       <r>  35.3696  0.0000</r>
      </set>
      <set comment="kpoint 3">
       <r>  -5.5174  1.0000</r>
       <r>   0.6349  1.0000</r>
       <r>   0.6518  1.0000</r>
       <r>   0.6519  1.0000</r>
       <r>   1.4393  1.0000</r>
       <r>   1.4514  1.0000</r>
       <r>  26.7544  0.0000</r>
       <r>  28.7159  0.0000</r>
       <r>  28.7160  0.0000</r>
       <r>  28.9818  0.0000</r>
       <r>  32.0120  0.0000</r>
       <r>  32.2391  0.0000</r>
       <r>  32.2393  0.0000</r>
       <r>  35.4445  0.0000</r>
      </set>
      <set comment="kpoint 4">
       <r>  -5.4775  1.0000</r>
       <r>   0.6231  1.0000</r>
       <r>   0.6610  1.0000</r>
       <r>   0.6610  1.0000</r>
       <r>   1.4286  1.0000</r>
       <r>   1.4555  1.0000</r>
       <r>  26.6008  0.0000</r>
       <r>  28.3186  0.0000</r>
       <r>  28.3187  0.0000</r>
       <r>  28.8198  0.0000</r>
       <r>  32.2489  0.0000</r>
       <r>  32.6623  0.0000</r>
       <r>  32.6625  0.0000</r>
       <r>  35.5248  0.0000</r>
      </set>
      <set comment="kpoint 5">
       <r>  -5.4218  1.0000</r>
       <r>   0.6067  1.0000</r>
       <r>   0.6740  1.0000</r>
       <r>   0.6740  1.0000</r>
       <r>   1.4140  1.0000</r>
       <r>   1.4614  1.0000</r>
       <r>  26.4057  0.0000</r>
       <r>  27.8690  0.0000</r>
       <r>  27.8691  0.0000</r>
       <r>  28.6098  0.0000</r>
       <r>  32.5616  0.0000</r>
       <r>  33.1487  0.0000</r>
       <r>  33.1489  0.0000</r>
       <r>  35.5209  0.0000</r>
      </set>
      <set comment="kpoint 6">
       <r>  -5.3504  1.0000</r>
       <r>   0.5859  1.0000</r>
       <r>   0.6907  1.0000</r>
       <r>   0.6907  1.0000</r>
       <r>   1.3955  1.0000</r>
       <r>   1.4689  1.0000</r>
       <r>  26.1820  0.0000</r>
       <r>  27.3942  0.0000</r>
       <r>  27.3943  0.0000</r>
       <r>  28.3635  0.0000</r>
       <r>  32.9372  0.0000</r>
       <r>  33.6706  0.0000</r>
       <r>  33.6708  0.0000</r>
       <r>  35.2954  0.0000</r>
      </set>
      <set comment="kpoint 7">
       <r>  -5.2635  1.0000</r>
       <r>   0.5609  1.0000</r>
       <r>   0.7111  1.0000</r>
       <r>   0.7111  1.0000</r>
       <r>   1.3734  1.0000</r>
       <r>   1.4780  1.0000</r>
       <r>  25.9403  0.0000</r>
       <r>  26.9081  0.0000</r>
       <r>  26.9082  0.0000</r>
       <r>  28.0909  0.0000</r>
       <r>  33.3648  0.0000</r>
       <r>  34.2132  0.0000</r>
       <r>  34.2134  0.0000</r>
       <r>  34.7882  0.0000</r>
      </set>
      <set comment="kpoint 8">
       <r>  -5.1612  1.0000</r>
       <r>   0.5319  1.0000</r>
       <r>   0.7351  1.0000</r>
       <r>   0.7352  1.0000</r>
       <r>   1.3480  1.0000</r>
       <r>   1.4887  1.0000</r>
       <r>  25.6887  0.0000</r>
       <r>  26.4185  0.0000</r>
       <r>  26.4186  0.0000</r>
       <r>  27.8000  0.0000</r>
       <r>  33.8360  0.0000</r>
       <r>  34.0887  0.0000</r>
       <r>  34.7680  0.0000</r>
       <r>  34.7682  0.0000</r>
      </set>
      <set comment="kpoint 9">
       <r>  -5.0437  1.0000</r>
       <r>   0.4990  1.0000</r>
       <r>   0.7628  1.0000</r>
       <r>   0.7628  1.0000</r>
       <r>   1.3196  1.0000</r>
       <r>   1.5009  1.0000</r>
       <r>  25.4333  0.0000</r>
       <r>  25.9298  0.0000</r>
       <r>  25.9299  0.0000</r>
       <r>  27.4967  0.0000</r>
       <r>  33.2966  0.0000</r>
       <r>  34.3448  0.0000</r>
       <r>  35.3294  0.0000</r>
       <r>  35.3296  0.0000</r>
      </set>
      <set comment="kpoint 10">
       <r>  -4.9115  1.0000</r>
       <r>   0.4625  1.0000</r>
       <r>   0.7939  1.0000</r>
       <r>   0.7940  1.0000</r>
       <r>   1.2887  1.0000</r>
       <r>   1.5144  1.0000</r>
       <r>  25.1784  0.0000</r>
       <r>  25.4447  0.0000</r>
       <r>  25.4449  0.0000</r>
       <r>  27.1846  0.0000</r>
       <r>  32.4658  0.0000</r>
       <r>  34.8864  0.0000</r>
       <r>  35.8933  0.0000</r>
       <r>  35.8935  0.0000</r>
      </set>
      <set comment="kpoint 11">
       <r>  -4.7648  1.0000</r>
       <r>   0.4227  1.0000</r>
       <r>   0.8285  1.0000</r>
       <r>   0.8286  1.0000</r>
       <r>   1.2556  1.0000</r>
       <r>   1.5293  1.0000</r>
       <r>  24.9270  0.0000</r>
       <r>  24.9654  0.0000</r>
       <r>  24.9655  0.0000</r>
       <r>  26.8653  0.0000</r>
       <r>  31.6236  0.0000</r>
       <r>  35.4576  0.0000</r>
       <r>  36.4564  0.0000</r>
       <r>  36.4567  0.0000</r>
      </set>
      <set comment="kpoint 12">
       <r>  -4.6041  1.0000</r>
       <r>   0.3798  1.0000</r>
       <r>   0.8664  1.0000</r>
       <r>   0.8665  1.0000</r>
       <r>   1.2211  1.0000</r>
       <r>   1.5455  1.0000</r>
       <r>  24.4930  0.0000</r>
       <r>  24.4931  0.0000</r>
       <r>  24.6812  0.0000</r>
       <r>  26.5380  0.0000</r>
       <r>  30.7862  0.0000</r>
       <r>  36.0557  0.0000</r>
       <r>  37.0161  0.0000</r>
       <r>  37.0164  0.0000</r>
      </set>
      <set comment="kpoint 13">
       <r>  -4.4301  1.0000</r>
       <r>   0.3343  1.0000</r>
       <r>   0.9076  1.0000</r>
       <r>   0.9076  1.0000</r>
       <r>   1.1859  1.0000</r>
       <r>   1.5627  1.0000</r>
       <r>  24.0287  0.0000</r>
       <r>  24.0288  0.0000</r>
       <r>  24.4427  0.0000</r>
       <r>  26.1992  0.0000</r>
       <r>  29.9665  0.0000</r>
       <r>  36.6789  0.0000</r>
       <r>  37.5701  0.0000</r>
       <r>  37.5704  0.0000</r>
      </set>
      <set comment="kpoint 14">
       <r>  -4.2432  1.0000</r>
       <r>   0.2862  1.0000</r>
       <r>   0.9512  1.0000</r>
       <r>   0.9512  1.0000</r>
       <r>   1.1463  1.0000</r>
       <r>   1.5810  1.0000</r>
       <r>  23.5709  0.0000</r>
       <r>  23.5711  0.0000</r>
       <r>  24.2124  0.0000</r>
       <r>  25.8312  0.0000</r>
       <r>  29.1715  0.0000</r>
       <r>  37.3254  0.0000</r>
       <r>  38.1106  0.0000</r>
       <r>  38.1109  0.0000</r>
      </set>
      <set comment="kpoint 15">
       <r>  -4.0444  1.0000</r>
       <r>   0.2361  1.0000</r>
       <r>   0.9982  1.0000</r>
       <r>   0.9982  1.0000</r>
       <r>   1.1114  1.0000</r>
       <r>   1.6002  1.0000</r>
       <r>  23.1251  0.0000</r>
       <r>  23.1253  0.0000</r>
       <r>  23.9913  0.0000</r>
       <r>  25.4404  0.0000</r>
       <r>  28.4306  0.0000</r>
       <r>  37.9947  0.0000</r>
       <r>  38.6491  0.0000</r>
       <r>  38.6494  0.0000</r>
      </set>
      <set comment="kpoint 16">
       <r>  -3.8348  1.0000</r>
       <r>   0.1843  1.0000</r>
       <r>   1.0479  1.0000</r>
       <r>   1.0479  1.0000</r>
       <r>   1.0788  1.0000</r>
       <r>   1.6202  1.0000</r>
       <r>  22.6897  0.0000</r>
       <r>  22.6898  0.0000</r>
       <r>  23.7797  0.0000</r>
       <r>  25.0029  0.0000</r>
       <r>  27.7552  0.0000</r>
       <r>  38.6856  0.0000</r>
       <r>  39.1786  0.0000</r>
       <r>  39.1789  0.0000</r>
      </set>
      <set comment="kpoint 17">
       <r>  -3.6156  1.0000</r>
       <r>   0.1311  1.0000</r>
       <r>   1.0499  1.0000</r>
       <r>   1.1001  1.0000</r>
       <r>   1.1002  1.0000</r>
       <r>   1.6409  1.0000</r>
       <r>  22.2651  0.0000</r>
       <r>  22.2652  0.0000</r>
       <r>  23.5780  0.0000</r>
       <r>  24.5025  0.0000</r>
       <r>  27.1632  0.0000</r>
       <r>  39.3974  0.0000</r>
       <r>  39.6995  0.0000</r>
       <r>  39.6998  0.0000</r>
      </set>
      <set comment="kpoint 18">
       <r>  -3.3885  1.0000</r>
       <r>   0.0768  1.0000</r>
       <r>   1.0265  1.0000</r>
       <r>   1.1547  1.0000</r>
       <r>   1.1547  1.0000</r>
       <r>   1.6620  1.0000</r>
       <r>  21.8521  0.0000</r>
       <r>  21.8522  0.0000</r>
       <r>  23.3863  0.0000</r>
       <r>  23.9310  0.0000</r>
       <r>  26.6642  0.0000</r>
       <r>  40.1295  0.0000</r>
       <r>  40.2129  0.0000</r>
       <r>  40.2132  0.0000</r>
      </set>
      <set comment="kpoint 19">
       <r>  -3.1556  1.0000</r>
       <r>   0.0219  1.0000</r>
       <r>   1.0134  1.0000</r>
       <r>   1.2123  1.0000</r>
       <r>   1.2123  1.0000</r>
       <r>   1.6837  1.0000</r>
       <r>  21.4540  0.0000</r>
       <r>  21.4542  0.0000</r>
       <r>  23.2047  0.0000</r>
       <r>  23.3124  0.0000</r>
       <r>  26.2538  0.0000</r>
       <r>  40.7210  0.0000</r>
       <r>  40.7213  0.0000</r>
       <r>  40.8813  0.0000</r>
      </set>
      <set comment="kpoint 20">
       <r>  -2.9196  1.0000</r>
       <r>  -0.0333  1.0000</r>
       <r>   1.0080  1.0000</r>
       <r>   1.2705  1.0000</r>
       <r>   1.2705  1.0000</r>
       <r>   1.7055  1.0000</r>
       <r>  21.0652  0.0000</r>
       <r>  21.0653  0.0000</r>
       <r>  22.6236  0.0000</r>
       <r>  23.0332  0.0000</r>
       <r>  25.9176  0.0000</r>
       <r>  41.2237  0.0000</r>
       <r>  41.2240  0.0000</r>
       <r>  41.6525  0.0000</r>
      </set>
      <set comment="kpoint 21">
       <r>  -2.6837  1.0000</r>
       <r>  -0.0884  1.0000</r>
       <r>   1.0168  1.0000</r>
       <r>   1.3302  1.0000</r>
       <r>   1.3302  1.0000</r>
       <r>   1.7275  1.0000</r>
       <r>  20.6895  0.0000</r>
       <r>  20.6896  0.0000</r>
       <r>  21.9018  0.0000</r>
       <r>  22.8716  0.0000</r>
       <r>  25.6388  0.0000</r>
       <r>  41.7244  0.0000</r>
       <r>  41.7247  0.0000</r>
       <r>  42.4426  0.0000</r>
      </set>
      <set comment="kpoint 22">
       <r>  -2.4521  1.0000</r>
       <r>  -0.1431  1.0000</r>
       <r>   1.0440  1.0000</r>
       <r>   1.3910  1.0000</r>
       <r>   1.3911  1.0000</r>
       <r>   1.7494  1.0000</r>
       <r>  20.3276  0.0000</r>
       <r>  20.3277  0.0000</r>
       <r>  21.1613  0.0000</r>
       <r>  22.7200  0.0000</r>
       <r>  25.4035  0.0000</r>
       <r>  42.2254  0.0000</r>
       <r>  42.2257  0.0000</r>
       <r>  43.2512  0.0000</r>
      </set>
      <set comment="kpoint 23">
       <r>  -2.2297  1.0000</r>
       <r>  -0.1970  1.0000</r>
       <r>   1.0944  1.0000</r>
       <r>   1.4527  1.0000</r>
       <r>   1.4527  1.0000</r>
       <r>   1.7711  1.0000</r>
       <r>  19.9800  0.0000</r>
       <r>  19.9802  0.0000</r>
       <r>  20.4125  0.0000</r>
       <r>  22.5781  0.0000</r>
       <r>  25.2016  0.0000</r>
       <r>  42.7285  0.0000</r>
       <r>  42.7288  0.0000</r>
       <r>  44.0782  0.0000</r>
      </set>
      <set comment="kpoint 24">
       <r>  -2.0220  1.0000</r>
       <r>  -0.2498  1.0000</r>
       <r>   1.1734  1.0000</r>
       <r>   1.5147  1.0000</r>
       <r>   1.5147  1.0000</r>
       <r>   1.7925  1.0000</r>
       <r>  19.6474  0.0000</r>
       <r>  19.6475  0.0000</r>
       <r>  19.6624  0.0000</r>
       <r>  22.4457  0.0000</r>
       <r>  25.0263  0.0000</r>
       <r>  43.2355  0.0000</r>
       <r>  43.2358  0.0000</r>
       <r>  44.9231  0.0000</r>
      </set>
      <set comment="kpoint 25">
       <r>  -1.8344  1.0000</r>
       <r>  -0.3028  1.0000</r>
       <r>   1.2863  1.0000</r>
       <r>   1.5747  1.0000</r>
       <r>   1.5747  1.0000</r>
       <r>   1.8135  1.0000</r>
       <r>  18.9156  0.0000</r>
       <r>  19.3292  0.0000</r>
       <r>  19.3293  0.0000</r>
       <r>  22.3023  0.0000</r>
       <r>  24.8729  0.0000</r>
       <r>  43.7479  0.0000</r>
       <r>  43.7482  0.0000</r>
       <r>  45.3400  0.0000</r>
      </set>
      <set comment="kpoint 26">
       <r>  -1.6713  1.0000</r>
       <r>  -0.3525  1.0000</r>
       <r>   1.4375  1.0000</r>
       <r>   1.6360  1.0000</r>
       <r>   1.6360  1.0000</r>
       <r>   1.8339  1.0000</r>
       <r>  18.1765  0.0000</r>
       <r>  19.0285  0.0000</r>
       <r>  19.0286  0.0000</r>
       <r>  22.1872  0.0000</r>
       <r>  24.7380  0.0000</r>
       <r>  44.2669  0.0000</r>
       <r>  44.2671  0.0000</r>
       <r>  45.5032  0.0000</r>
      </set>
      <set comment="kpoint 27">
       <r>  -1.5354  1.0000</r>
       <r>  -0.4002  1.0000</r>
       <r>   1.6291  1.0000</r>
       <r>   1.6963  1.0000</r>
       <r>   1.6963  1.0000</r>
       <r>   1.8535  1.0000</r>
       <r>  17.4475  0.0000</r>
       <r>  18.7445  0.0000</r>
       <r>  18.7447  0.0000</r>
       <r>  22.0810  0.0000</r>
       <r>  24.6193  0.0000</r>
       <r>  44.7934  0.0000</r>
       <r>  44.7937  0.0000</r>
       <r>  45.6692  0.0000</r>
      </set>
      <set comment="kpoint 28">
       <r>  -1.4272  1.0000</r>
       <r>  -0.4456  1.0000</r>
       <r>   1.7551  1.0000</r>
       <r>   1.7551  1.0000</r>
       <r>   1.8608  1.0000</r>
       <r>   1.8723  1.0000</r>
       <r>  16.7312  0.0000</r>
       <r>  18.4781  0.0000</r>
       <r>  18.4782  0.0000</r>
       <r>  21.9836  0.0000</r>
       <r>  24.5148  0.0000</r>
       <r>  45.3284  0.0000</r>
       <r>  45.3286  0.0000</r>
       <r>  45.8370  0.0000</r>
      </set>
      <set comment="kpoint 29">
       <r>  -1.3442  1.0000</r>
       <r>  -0.4881  1.0000</r>
       <r>   1.8168  1.0000</r>
       <r>   1.8168  1.0000</r>
       <r>   1.8913  1.0000</r>
       <r>   2.1304  1.0000</r>
       <r>  16.0348  0.0000</r>
       <r>  18.2327  0.0000</r>
       <r>  18.2328  0.0000</r>
       <r>  21.9004  0.0000</r>
       <r>  24.4268  0.0000</r>
       <r>  45.8793  0.0000</r>
       <r>  45.8795  0.0000</r>
       <r>  46.0140  0.0000</r>
      </set>
      <set comment="kpoint 30">
       <r>  -1.2836  1.0000</r>
       <r>  -0.5281  1.0000</r>
       <r>   1.8705  1.0000</r>
       <r>   1.8705  1.0000</r>
       <r>   1.9078  1.0000</r>
       <r>   2.4315  1.0000</r>
       <r>  15.3505  0.0000</r>
       <r>  18.0025  0.0000</r>
       <r>  18.0026  0.0000</r>
       <r>  21.8196  0.0000</r>
       <r>  24.3468  0.0000</r>
       <r>  46.1789  0.0000</r>
       <r>  46.4347  0.0000</r>
       <r>  46.4349  0.0000</r>
      </set>
      <set comment="kpoint 31">
       <r>  -1.2411  1.0000</r>
       <r>  -0.5649  1.0000</r>
       <r>   1.9212  1.0000</r>
       <r>   1.9212  1.0000</r>
       <r>   1.9232  1.0000</r>
       <r>   2.7589  1.0000</r>
       <r>  14.6865  0.0000</r>
       <r>  17.7917  0.0000</r>
       <r>  17.7919  0.0000</r>
       <r>  21.7471  0.0000</r>
       <r>  24.2772  0.0000</r>
       <r>  46.3407  0.0000</r>
       <r>  47.0003  0.0000</r>
       <r>  47.0004  0.0000</r>
      </set>
      <set comment="kpoint 32">
       <r>  -1.2125  1.0000</r>
       <r>  -0.5985  1.0000</r>
       <r>   1.9397  1.0000</r>
       <r>   1.9707  1.0000</r>
       <r>   1.9707  1.0000</r>
       <r>   3.1058  1.0000</r>
       <r>  14.0463  0.0000</r>
       <r>  17.6019  0.0000</r>
       <r>  17.6020  0.0000</r>
       <r>  21.6826  0.0000</r>
       <r>  24.2172  0.0000</r>
       <r>  46.5052  0.0000</r>
       <r>  47.5772  0.0000</r>
       <r>  47.5774  0.0000</r>
      </set>
      <set comment="kpoint 33">
       <r>  -1.1942  1.0000</r>
       <r>  -0.6285  1.0000</r>
       <r>   1.9521  1.0000</r>
       <r>   2.0136  1.0000</r>
       <r>   2.0136  1.0000</r>
       <r>   3.4649  1.0000</r>
       <r>  13.4342  0.0000</r>
       <r>  17.4319  0.0000</r>
       <r>  17.4320  0.0000</r>
       <r>  21.6261  0.0000</r>
       <r>  24.1659  0.0000</r>
       <r>  46.6512  0.0000</r>
       <r>  48.1642  0.0000</r>
       <r>  48.1644  0.0000</r>
      </set>
      <set comment="kpoint 34">
       <r>  -1.1834  1.0000</r>
       <r>  -0.6549  1.0000</r>
       <r>   1.9630  1.0000</r>
       <r>   2.0520  1.0000</r>
       <r>   2.0520  1.0000</r>
       <r>   3.8275  1.0000</r>
       <r>  12.8564  0.0000</r>
       <r>  17.2833  0.0000</r>
       <r>  17.2834  0.0000</r>
       <r>  21.5774  0.0000</r>
       <r>  24.1229  0.0000</r>
       <r>  46.7870  0.0000</r>
       <r>  48.7620  0.0000</r>
       <r>  48.7622  0.0000</r>
      </set>
      <set comment="kpoint 35">
       <r>  -1.1777  1.0000</r>
       <r>  -0.6775  1.0000</r>
       <r>   1.9724  1.0000</r>
       <r>   2.0853  1.0000</r>
       <r>   2.0853  1.0000</r>
       <r>   4.1836  1.0000</r>
       <r>  12.3212  0.0000</r>
       <r>  17.1565  0.0000</r>
       <r>  17.1567  0.0000</r>
       <r>  21.5363  0.0000</r>
       <r>  24.0874  0.0000</r>
       <r>  46.9094  0.0000</r>
       <r>  49.3707  0.0000</r>
       <r>  49.3709  0.0000</r>
      </set>
      <set comment="kpoint 36">
       <r>  -1.1748  1.0000</r>
       <r>  -0.6962  1.0000</r>
       <r>   1.9801  1.0000</r>
       <r>   2.1131  1.0000</r>
       <r>   2.1131  1.0000</r>
       <r>   4.5199  1.0000</r>
       <r>  11.8435  0.0000</r>
       <r>  17.0522  0.0000</r>
       <r>  17.0523  0.0000</r>
       <r>  21.5029  0.0000</r>
       <r>  24.0644  0.0000</r>
       <r>  47.0153  0.0000</r>
       <r>  49.9903  0.0000</r>
       <r>  49.9908  0.0000</r>
      </set>
      <set comment="kpoint 37">
       <r>  -1.1742  1.0000</r>
       <r>  -0.7108  1.0000</r>
       <r>   1.9862  1.0000</r>
       <r>   2.1352  1.0000</r>
       <r>   2.1352  1.0000</r>
       <r>   4.8192  1.0000</r>
       <r>  11.4322  0.0000</r>
       <r>  16.9705  0.0000</r>
       <r>  16.9707  0.0000</r>
       <r>  21.4770  0.0000</r>
       <r>  24.0426  0.0000</r>
       <r>  47.1017  0.0000</r>
       <r>  50.6207  0.0000</r>
       <r>  50.6237  0.0000</r>
      </set>
      <set comment="kpoint 38">
       <r>  -1.1745  1.0000</r>
       <r>  -0.7213  1.0000</r>
       <r>   1.9906  1.0000</r>
       <r>   2.1512  1.0000</r>
       <r>   2.1512  1.0000</r>
       <r>   5.0601  1.0000</r>
       <r>  11.1118  0.0000</r>
       <r>  16.9120  0.0000</r>
       <r>  16.9121  0.0000</r>
       <r>  21.4585  0.0000</r>
       <r>  24.0271  0.0000</r>
       <r>  47.1658  0.0000</r>
       <r>  50.7234  0.0000</r>
       <r>  51.2617  0.0000</r>
      </set>
      <set comment="kpoint 39">
       <r>  -1.1749  1.0000</r>
       <r>  -0.7276  1.0000</r>
       <r>   1.9933  1.0000</r>
       <r>   2.1608  1.0000</r>
       <r>   2.1609  1.0000</r>
       <r>   5.2186  1.0000</r>
       <r>  10.9059  0.0000</r>
       <r>  16.8768  0.0000</r>
       <r>  16.8769  0.0000</r>
       <r>  21.4475  0.0000</r>
       <r>  24.0180  0.0000</r>
       <r>  47.2052  0.0000</r>
       <r>  50.7821  0.0000</r>
       <r>  51.9131  0.0000</r>
      </set>
      <set comment="kpoint 40">
       <r>  -1.1751  1.0000</r>
       <r>  -0.7297  1.0000</r>
       <r>   1.9941  1.0000</r>
       <r>   2.1641  1.0000</r>
       <r>   2.1641  1.0000</r>
       <r>   5.2742  1.0000</r>
       <r>  10.8345  0.0000</r>
       <r>  16.8650  0.0000</r>
       <r>  16.8652  0.0000</r>
       <r>  21.4438  0.0000</r>
       <r>  24.0149  0.0000</r>
       <r>  47.2185  0.0000</r>
       <r>  50.8021  0.0000</r>
       <r>  52.5726  0.0000</r>
      </set>
      <set comment="kpoint 41">
       <r>  -1.1751  1.0000</r>
       <r>  -0.7297  1.0000</r>
       <r>   1.9941  1.0000</r>
       <r>   2.1641  1.0000</r>
       <r>   2.1641  1.0000</r>
       <r>   5.2742  1.0000</r>
       <r>  10.8345  0.0000</r>
       <r>  16.8650  0.0000</r>
       <r>  16.8652  0.0000</r>
       <r>  21.4438  0.0000</r>
       <r>  24.0149  0.0000</r>
       <r>  47.2185  0.0000</r>
       <r>  50.8021  0.0000</r>
       <r>  52.5726  0.0000</r>
      </set>
      <set comment="kpoint 42">
       <r>  -1.1742  1.0000</r>
       <r>  -0.7292  1.0000</r>
       <r>   1.9935  1.0000</r>
       <r>   2.1605  1.0000</r>
       <r>   2.1641  1.0000</r>
       <r>   5.2796  1.0000</r>
       <r>  10.8352  0.0000</r>
       <r>  16.8497  0.0000</r>
       <r>  16.8559  0.0000</r>
       <r>  21.4618  0.0000</r>
       <r>  24.0286  0.0000</r>
       <r>  47.1948  0.0000</r>
       <r>  50.7201  0.0000</r>
       <r>  52.5584  0.0000</r>
      </set>
      <set comment="kpoint 43">
       <r>  -1.1714  1.0000</r>
       <r>  -0.7275  1.0000</r>
       <r>   1.9914  1.0000</r>
       <r>   2.1497  1.0000</r>
       <r>   2.1641  1.0000</r>
       <r>   5.2958  1.0000</r>
       <r>  10.8375  0.0000</r>
       <r>  16.8044  0.0000</r>
       <r>  16.8282  0.0000</r>
       <r>  21.5149  0.0000</r>
       <r>  24.0695  0.0000</r>
       <r>  47.1228  0.0000</r>
       <r>  50.5240  0.0000</r>
       <r>  52.3740  0.0000</r>
      </set>
      <set comment="kpoint 44">
       <r>  -1.1667  1.0000</r>
       <r>  -0.7247  1.0000</r>
       <r>   1.9880  1.0000</r>
       <r>   2.1319  1.0000</r>
       <r>   2.1641  1.0000</r>
       <r>   5.3225  1.0000</r>
       <r>  10.8412  0.0000</r>
       <r>  16.7311  0.0000</r>
       <r>  16.7827  0.0000</r>
       <r>  21.6014  0.0000</r>
       <r>  24.1369  0.0000</r>
       <r>  47.0000  0.0000</r>
       <r>  50.2909  0.0000</r>
       <r>  52.1343  0.0000</r>
      </set>
      <set comment="kpoint 45">
       <r>  -1.1602  1.0000</r>
       <r>  -0.7207  1.0000</r>
       <r>   1.9833  1.0000</r>
       <r>   2.1076  1.0000</r>
       <r>   2.1641  1.0000</r>
       <r>   5.3594  1.0000</r>
       <r>  10.8465  0.0000</r>
       <r>  16.6326  0.0000</r>
       <r>  16.7206  0.0000</r>
       <r>  21.7182  0.0000</r>
       <r>  24.2298  0.0000</r>
       <r>  46.8242  0.0000</r>
       <r>  50.0671  0.0000</r>
       <r>  51.8259  0.0000</r>
      </set>
      <set comment="kpoint 46">
       <r>  -1.1519  1.0000</r>
       <r>  -0.7157  1.0000</r>
       <r>   1.9772  1.0000</r>
       <r>   2.0772  1.0000</r>
       <r>   2.1641  1.0000</r>
       <r>   5.4060  1.0000</r>
       <r>  10.8533  0.0000</r>
       <r>  16.5124  0.0000</r>
       <r>  16.6432  0.0000</r>
       <r>  21.8621  0.0000</r>
       <r>  24.3468  0.0000</r>
       <r>  46.5955  0.0000</r>
       <r>  49.8742  0.0000</r>
       <r>  51.4718  0.0000</r>
      </set>
      <set comment="kpoint 47">
       <r>  -1.1418  1.0000</r>
       <r>  -0.7095  1.0000</r>
       <r>   1.9697  1.0000</r>
       <r>   2.0411  1.0000</r>
       <r>   2.1642  1.0000</r>
       <r>   5.4618  1.0000</r>
       <r>  10.8616  0.0000</r>
       <r>  16.3736  0.0000</r>
       <r>  16.5519  0.0000</r>
       <r>  22.0297  0.0000</r>
       <r>  24.4864  0.0000</r>
       <r>  46.3170  0.0000</r>
       <r>  49.7198  0.0000</r>
       <r>  51.0830  0.0000</r>
      </set>
      <set comment="kpoint 48">
       <r>  -1.1300  1.0000</r>
       <r>  -0.7022  1.0000</r>
       <r>   1.9610  1.0000</r>
       <r>   2.0000  1.0000</r>
       <r>   2.1642  1.0000</r>
       <r>   5.5262  1.0000</r>
       <r>  10.8715  0.0000</r>
       <r>  16.2197  0.0000</r>
       <r>  16.4484  0.0000</r>
       <r>  22.2179  0.0000</r>
       <r>  24.6469  0.0000</r>
       <r>  45.9952  0.0000</r>
       <r>  49.6034  0.0000</r>
       <r>  50.6694  0.0000</r>
      </set>
      <set comment="kpoint 49">
       <r>  -1.1164  1.0000</r>
       <r>  -0.6937  1.0000</r>
       <r>   1.9510  1.0000</r>
       <r>   1.9546  1.0000</r>
       <r>   2.1642  1.0000</r>
       <r>   5.5986  1.0000</r>
       <r>  10.8829  0.0000</r>
       <r>  16.0533  0.0000</r>
       <r>  16.3343  0.0000</r>
       <r>  22.4237  0.0000</r>
       <r>  24.8266  0.0000</r>
       <r>  45.6380  0.0000</r>
       <r>  49.5209  0.0000</r>
       <r>  50.2380  0.0000</r>
      </set>
      <set comment="kpoint 50">
       <r>  -1.1011  1.0000</r>
       <r>  -0.6841  1.0000</r>
       <r>   1.9052  1.0000</r>
       <r>   1.9397  1.0000</r>
       <r>   2.1642  1.0000</r>
       <r>   5.6785  1.0000</r>
       <r>  10.8960  0.0000</r>
       <r>  15.8769  0.0000</r>
       <r>  16.2113  0.0000</r>
       <r>  22.6448  0.0000</r>
       <r>  25.0240  0.0000</r>
       <r>  45.2533  0.0000</r>
       <r>  49.4666  0.0000</r>
       <r>  49.7939  0.0000</r>
      </set>
      <set comment="kpoint 51">
       <r>  -1.0843  1.0000</r>
       <r>  -0.6734  1.0000</r>
       <r>   1.8526  1.0000</r>
       <r>   1.9271  1.0000</r>
       <r>   2.1643  1.0000</r>
       <r>   5.7652  0.0000</r>
       <r>  10.9107  0.0000</r>
       <r>  15.6925  0.0000</r>
       <r>  16.0808  0.0000</r>
       <r>  22.8791  0.0000</r>
       <r>  25.2375  0.0000</r>
       <r>  44.8481  0.0000</r>
       <r>  49.3408  0.0000</r>
       <r>  49.4353  0.0000</r>
      </set>
      <set comment="kpoint 52">
       <r>  -1.0658  1.0000</r>
       <r>  -0.6615  1.0000</r>
       <r>   1.7971  1.0000</r>
       <r>   1.9134  1.0000</r>
       <r>   2.1643  1.0000</r>
       <r>   5.8583  0.0000</r>
       <r>  10.9270  0.0000</r>
       <r>  15.5018  0.0000</r>
       <r>  15.9442  0.0000</r>
       <r>  23.1250  0.0000</r>
       <r>  25.4656  0.0000</r>
       <r>  44.4278  0.0000</r>
       <r>  48.8813  0.0000</r>
       <r>  49.4226  0.0000</r>
      </set>
      <set comment="kpoint 53">
       <r>  -1.0459  1.0000</r>
       <r>  -0.6485  1.0000</r>
       <r>   1.7372  1.0000</r>
       <r>   1.8974  1.0000</r>
       <r>   2.1643  1.0000</r>
       <r>   5.9565  0.0000</r>
       <r>  10.9450  0.0000</r>
       <r>  15.3063  0.0000</r>
       <r>  15.8026  0.0000</r>
       <r>  23.3811  0.0000</r>
       <r>  25.7070  0.0000</r>
       <r>  43.9918  0.0000</r>
       <r>  48.4151  0.0000</r>
       <r>  49.4245  0.0000</r>
      </set>
      <set comment="kpoint 54">
       <r>  -1.0246  1.0000</r>
       <r>  -0.6343  1.0000</r>
       <r>   1.6775  1.0000</r>
       <r>   1.8813  1.0000</r>
       <r>   2.1644  1.0000</r>
       <r>   6.0608  0.0000</r>
       <r>  10.9648  0.0000</r>
       <r>  15.1070  0.0000</r>
       <r>  15.6575  0.0000</r>
       <r>  23.6462  0.0000</r>
       <r>  25.9604  0.0000</r>
       <r>  43.5527  0.0000</r>
       <r>  47.9484  0.0000</r>
       <r>  49.4396  0.0000</r>
      </set>
      <set comment="kpoint 55">
       <r>  -1.0019  1.0000</r>
       <r>  -0.6190  1.0000</r>
       <r>   1.6163  1.0000</r>
       <r>   1.8641  1.0000</r>
       <r>   2.1644  1.0000</r>
       <r>   6.1701  0.0000</r>
       <r>  10.9863  0.0000</r>
       <r>  14.9049  0.0000</r>
       <r>  15.5097  0.0000</r>
       <r>  23.9195  0.0000</r>
       <r>  26.2249  0.0000</r>
       <r>  43.1085  0.0000</r>
       <r>  47.4803  0.0000</r>
       <r>  49.4652  0.0000</r>
      </set>
      <set comment="kpoint 56">
       <r>  -0.9780  1.0000</r>
       <r>  -0.6025  1.0000</r>
       <r>   1.5540  1.0000</r>
       <r>   1.8459  1.0000</r>
       <r>   2.1645  1.0000</r>
       <r>   6.2840  0.0000</r>
       <r>  11.0096  0.0000</r>
       <r>  14.7006  0.0000</r>
       <r>  15.3601  0.0000</r>
       <r>  24.2001  0.0000</r>
       <r>  26.4993  0.0000</r>
       <r>  42.6612  0.0000</r>
       <r>  47.0116  0.0000</r>
       <r>  49.4999  0.0000</r>
      </set>
      <set comment="kpoint 57">
       <r>  -0.9529  1.0000</r>
       <r>  -0.5848  1.0000</r>
       <r>   1.4908  1.0000</r>
       <r>   1.8268  1.0000</r>
       <r>   2.1645  1.0000</r>
       <r>   6.4023  0.0000</r>
       <r>  11.0348  0.0000</r>
       <r>  14.4949  0.0000</r>
       <r>  15.2096  0.0000</r>
       <r>  24.4876  0.0000</r>
       <r>  26.7828  0.0000</r>
       <r>  42.2121  0.0000</r>
       <r>  46.5432  0.0000</r>
       <r>  49.5425  0.0000</r>
      </set>
      <set comment="kpoint 58">
       <r>  -0.9268  1.0000</r>
       <r>  -0.5660  1.0000</r>
       <r>   1.4271  1.0000</r>
       <r>   1.8067  1.0000</r>
       <r>   2.1646  1.0000</r>
       <r>   6.5247  0.0000</r>
       <r>  11.0619  0.0000</r>
       <r>  14.2883  0.0000</r>
       <r>  15.0588  0.0000</r>
       <r>  24.7813  0.0000</r>
       <r>  27.0745  0.0000</r>
       <r>  41.7622  0.0000</r>
       <r>  46.0758  0.0000</r>
       <r>  49.5923  0.0000</r>
      </set>
      <set comment="kpoint 59">
       <r>  -0.9001  1.0000</r>
       <r>  -0.5461  1.0000</r>
       <r>   1.3630  1.0000</r>
       <r>   1.7834  1.0000</r>
       <r>   2.1646  1.0000</r>
       <r>   6.6510  0.0000</r>
       <r>  11.0894  0.0000</r>
       <r>  14.0807  0.0000</r>
       <r>  14.9083  0.0000</r>
       <r>  25.0776  0.0000</r>
       <r>  27.3694  0.0000</r>
       <r>  41.3125  0.0000</r>
       <r>  45.5867  0.0000</r>
       <r>  49.6485  0.0000</r>
      </set>
      <set comment="kpoint 60">
       <r>  -0.8723  1.0000</r>
       <r>  -0.5249  1.0000</r>
       <r>   1.2989  1.0000</r>
       <r>   1.7617  1.0000</r>
       <r>   2.1647  1.0000</r>
       <r>   6.7808  0.0000</r>
       <r>  11.1204  0.0000</r>
       <r>  13.8734  0.0000</r>
       <r>  14.7586  0.0000</r>
       <r>  25.3825  0.0000</r>
       <r>  27.6750  0.0000</r>
       <r>  40.8635  0.0000</r>
       <r>  45.1224  0.0000</r>
       <r>  49.7107  0.0000</r>
      </set>
      <set comment="kpoint 61">
       <r>  -0.8439  1.0000</r>
       <r>  -0.5025  1.0000</r>
       <r>   1.2348  1.0000</r>
       <r>   1.7392  1.0000</r>
       <r>   2.1648  1.0000</r>
       <r>   6.9141  0.0000</r>
       <r>  11.1534  0.0000</r>
       <r>  13.6661  0.0000</r>
       <r>  14.6103  0.0000</r>
       <r>  25.6927  0.0000</r>
       <r>  27.9867  0.0000</r>
       <r>  40.4158  0.0000</r>
       <r>  44.6608  0.0000</r>
       <r>  49.7784  0.0000</r>
      </set>
      <set comment="kpoint 62">
       <r>  -0.8150  1.0000</r>
       <r>  -0.4789  1.0000</r>
       <r>   1.1709  1.0000</r>
       <r>   1.7163  1.0000</r>
       <r>   2.1648  1.0000</r>
       <r>   7.0507  0.0000</r>
       <r>  11.1886  0.0000</r>
       <r>  13.4593  0.0000</r>
       <r>  14.4637  0.0000</r>
       <r>  26.0077  0.0000</r>
       <r>  28.3038  0.0000</r>
       <r>  39.9698  0.0000</r>
       <r>  44.2025  0.0000</r>
       <r>  49.8514  0.0000</r>
      </set>
      <set comment="kpoint 63">
       <r>  -0.7857  1.0000</r>
       <r>  -0.4542  1.0000</r>
       <r>   1.1073  1.0000</r>
       <r>   1.6930  1.0000</r>
       <r>   2.1649  1.0000</r>
       <r>   7.1904  0.0000</r>
       <r>  11.2259  0.0000</r>
       <r>  13.2531  0.0000</r>
       <r>  14.3192  0.0000</r>
       <r>  26.3276  0.0000</r>
       <r>  28.6255  0.0000</r>
       <r>  39.5258  0.0000</r>
       <r>  43.7478  0.0000</r>
       <r>  49.9294  0.0000</r>
      </set>
      <set comment="kpoint 64">
       <r>  -0.7562  1.0000</r>
       <r>  -0.4267  1.0000</r>
       <r>   1.0453  1.0000</r>
       <r>   1.6695  1.0000</r>
       <r>   2.1664  1.0000</r>
       <r>   7.3341  0.0000</r>
       <r>  11.2662  0.0000</r>
       <r>  13.0531  0.0000</r>
       <r>  14.1772  0.0000</r>
       <r>  26.6727  0.0000</r>
       <r>  28.9517  0.0000</r>
       <r>  39.0977  0.0000</r>
       <r>  43.2984  0.0000</r>
       <r>  50.0123  0.0000</r>
      </set>
      <set comment="kpoint 65">
       <r>  -0.7268  1.0000</r>
       <r>  -0.3996  1.0000</r>
       <r>   0.9828  1.0000</r>
       <r>   1.6458  1.0000</r>
       <r>   2.1664  1.0000</r>
       <r>   7.4796  0.0000</r>
       <r>  11.3080  0.0000</r>
       <r>  12.8483  0.0000</r>
       <r>  14.0377  0.0000</r>
       <r>  27.0011  0.0000</r>
       <r>  29.2808  0.0000</r>
       <r>  38.6583  0.0000</r>
       <r>  42.8530  0.0000</r>
       <r>  50.0998  0.0000</r>
      </set>
      <set comment="kpoint 66">
       <r>  -0.6976  1.0000</r>
       <r>  -0.3713  1.0000</r>
       <r>   0.9209  1.0000</r>
       <r>   1.6222  1.0000</r>
       <r>   2.1664  1.0000</r>
       <r>   7.6279  0.0000</r>
       <r>  11.3520  0.0000</r>
       <r>  12.6445  0.0000</r>
       <r>  13.9011  0.0000</r>
       <r>  27.3339  0.0000</r>
       <r>  29.6123  0.0000</r>
       <r>  38.2216  0.0000</r>
       <r>  42.4131  0.0000</r>
       <r>  50.1917  0.0000</r>
      </set>
      <set comment="kpoint 67">
       <r>  -0.6689  1.0000</r>
       <r>  -0.3417  1.0000</r>
       <r>   0.8599  1.0000</r>
       <r>   1.5988  1.0000</r>
       <r>   2.1664  1.0000</r>
       <r>   7.7788  0.0000</r>
       <r>  11.3984  0.0000</r>
       <r>  12.4419  0.0000</r>
       <r>  13.7676  0.0000</r>
       <r>  27.6710  0.0000</r>
       <r>  29.9454  0.0000</r>
       <r>  37.7877  0.0000</r>
       <r>  41.9797  0.0000</r>
       <r>  50.2879  0.0000</r>
      </set>
      <set comment="kpoint 68">
       <r>  -0.6406  1.0000</r>
       <r>  -0.3098  1.0000</r>
       <r>   0.8000  1.0000</r>
       <r>   1.5781  1.0000</r>
       <r>   2.1665  1.0000</r>
       <r>   7.9329  0.0000</r>
       <r>  11.4490  0.0000</r>
       <r>  12.2449  0.0000</r>
       <r>  13.6375  0.0000</r>
[...]
        <r>  0.0000  0.1158  0.1216  0.0000  0.0000  0.0000  0.2200  0.0000  0.0714 </r>
       </set>
      </set>
      <set comment="kpoint 391">
       <set comment="band 1">
        <r>  0.0417  0.0008  0.0008  0.0000  0.0000  0.0004  0.2017  0.0000  0.6052 </r>
       </set>
       <set comment="band 2">
        <r>  0.0000  0.0009  0.0009  0.0000  0.0000  0.9149  0.0001  0.0000  0.0002 </r>
       </set>
       <set comment="band 3">
        <r>  0.0000  0.0002  0.0002  0.0000  0.0000  0.0000  0.7439  0.0000  0.2480 </r>
       </set>
       <set comment="band 4">
        <r>  0.0000  0.0000  0.0000  0.0188  0.4802  0.0000  0.0000  0.4802  0.0000 </r>
       </set>
       <set comment="band 5">
        <r>  0.0000  0.0000  0.0000  0.0000  0.4975  0.0000  0.0000  0.4975  0.0000 </r>
       </set>
       <set comment="band 6">
        <r>  0.0000  0.0000  0.0000  0.5705  0.0187  0.0000  0.0000  0.0187  0.0000 </r>
       </set>
       <set comment="band 7">
        <r>  0.4046  0.0020  0.0020  0.0000  0.0000  0.0000  0.0849  0.0000  0.2548 </r>
       </set>
       <set comment="band 8">
        <r>  0.0376  0.2509  0.2509  0.0000  0.0000  0.0573  0.0019  0.0000  0.0057 </r>
       </set>
       <set comment="band 9">
        <r>  0.0000  0.2888  0.2888  0.0000  0.0000  0.0000  0.0037  0.0000  0.0012 </r>
       </set>
       <set comment="band 10">
        <r>  0.0251  0.0100  0.0100  0.0000  0.0000  0.6482  0.0027  0.0000  0.0082 </r>
       </set>
       <set comment="band 11">
        <r>  0.3563  0.0275  0.0275  0.0000  0.0000  0.0209  0.0503  0.0000  0.1508 </r>
       </set>
       <set comment="band 12">
        <r>  0.0000  0.0000  0.0000  0.0000  0.0370  0.0000  0.0000  0.0370  0.0000 </r>
       </set>
       <set comment="band 13">
        <r>  0.0000  0.0000  0.0000  0.0701  0.0638  0.0000  0.0000  0.0638  0.0000 </r>
       </set>
       <set comment="band 14">
        <r>  0.0000  0.1152  0.1231  0.0000  0.0000  0.0000  0.1969  0.0000  0.0634 </r>
       </set>
      </set>
      <set comment="kpoint 392">
       <set comment="band 1">
        <r>  0.0422  0.0006  0.0006  0.0000  0.0000  0.0002  0.2017  0.0000  0.6050 </r>
       </set>
       <set comment="band 2">
        <r>  0.0000  0.0007  0.0007  0.0000  0.0000  0.9155  0.0000  0.0000  0.0001 </r>
       </set>
       <set comment="band 3">
        <r>  0.0000  0.0002  0.0002  0.0000  0.0000  0.0000  0.7442  0.0000  0.2481 </r>
       </set>
       <set comment="band 4">
        <r>  0.0000  0.0000  0.0000  0.0154  0.4834  0.0000  0.0000  0.4834  0.0000 </r>
       </set>
       <set comment="band 5">
        <r>  0.0000  0.0000  0.0000  0.0000  0.4975  0.0000  0.0000  0.4976  0.0000 </r>
       </set>
       <set comment="band 6">
        <r>  0.0000  0.0000  0.0000  0.5743  0.0153  0.0000  0.0000  0.0153  0.0000 </r>
       </set>
       <set comment="band 7">
        <r>  0.4054  0.0016  0.0016  0.0000  0.0000  0.0000  0.0851  0.0000  0.2553 </r>
       </set>
       <set comment="band 8">
        <r>  0.0313  0.2566  0.2566  0.0000  0.0000  0.0496  0.0016  0.0000  0.0049 </r>
       </set>
       <set comment="band 9">
        <r>  0.0000  0.2890  0.2891  0.0000  0.0000  0.0000  0.0029  0.0000  0.0010 </r>
       </set>
       <set comment="band 10">
        <r>  0.0175  0.0099  0.0099  0.0000  0.0000  0.6632  0.0019  0.0000  0.0057 </r>
       </set>
       <set comment="band 11">
        <r>  0.3696  0.0221  0.0221  0.0000  0.0000  0.0142  0.0514  0.0000  0.1542 </r>
       </set>
       <set comment="band 12">
        <r>  0.0000  0.0000  0.0000  0.0000  0.0312  0.0000  0.0000  0.0312  0.0000 </r>
       </set>
       <set comment="band 13">
        <r>  0.0000  0.0000  0.0000  0.0711  0.0602  0.0000  0.0000  0.0602  0.0000 </r>
       </set>
       <set comment="band 14">
        <r>  0.0000  0.1138  0.1257  0.0000  0.0000  0.0000  0.1723  0.0000  0.0547 </r>
       </set>
      </set>
      <set comment="kpoint 393">
       <set comment="band 1">
        <r>  0.0425  0.0005  0.0005  0.0000  0.0000  0.0001  0.2016  0.0000  0.6049 </r>
       </set>
       <set comment="band 2">
        <r>  0.0000  0.0005  0.0005  0.0000  0.0000  0.9160  0.0000  0.0000  0.0001 </r>
       </set>
       <set comment="band 3">
        <r>  0.0000  0.0001  0.0001  0.0000  0.0000  0.0000  0.7444  0.0000  0.2481 </r>
       </set>
       <set comment="band 4">
        <r>  0.0000  0.0000  0.0000  0.0122  0.4864  0.0000  0.0000  0.4863  0.0000 </r>
       </set>
       <set comment="band 5">
        <r>  0.0000  0.0000  0.0000  0.0000  0.4975  0.0000  0.0000  0.4976  0.0000 </r>
       </set>
       <set comment="band 6">
        <r>  0.0000  0.0000  0.0000  0.5779  0.0120  0.0000  0.0000  0.0120  0.0000 </r>
       </set>
       <set comment="band 7">
        <r>  0.4060  0.0012  0.0012  0.0000  0.0000  0.0000  0.0852  0.0000  0.2557 </r>
       </set>
       <set comment="band 8">
        <r>  0.0253  0.2625  0.2623  0.0000  0.0000  0.0415  0.0014  0.0000  0.0041 </r>
       </set>
       <set comment="band 9">
        <r>  0.0000  0.2892  0.2893  0.0000  0.0000  0.0000  0.0022  0.0000  0.0007 </r>
       </set>
       <set comment="band 10">
        <r>  0.0113  0.0094  0.0094  0.0000  0.0000  0.6771  0.0012  0.0000  0.0036 </r>
       </set>
       <set comment="band 11">
        <r>  0.3814  0.0172  0.0172  0.0000  0.0000  0.0089  0.0524  0.0000  0.1571 </r>
       </set>
       <set comment="band 12">
        <r>  0.0000  0.0000  0.0000  0.0000  0.0254  0.0000  0.0000  0.0254  0.0000 </r>
       </set>
       <set comment="band 13">
        <r>  0.0000  0.0000  0.0000  0.0725  0.0559  0.0000  0.0000  0.0559  0.0000 </r>
       </set>
       <set comment="band 14">
        <r>  0.0002  0.0936  0.1470  0.0000  0.0000  0.0001  0.1488  0.0000  0.0400 </r>
       </set>
      </set>
      <set comment="kpoint 394">
       <set comment="band 1">
        <r>  0.0428  0.0004  0.0004  0.0000  0.0000  0.0001  0.2016  0.0000  0.6047 </r>
       </set>
       <set comment="band 2">
        <r>  0.0000  0.0004  0.0004  0.0000  0.0000  0.9164  0.0000  0.0000  0.0000 </r>
       </set>
       <set comment="band 3">
        <r>  0.0000  0.0001  0.0001  0.0000  0.0000  0.0000  0.7446  0.0000  0.2482 </r>
       </set>
       <set comment="band 4">
        <r>  0.0000  0.0000  0.0000  0.0092  0.4892  0.0000  0.0000  0.4891  0.0000 </r>
       </set>
       <set comment="band 5">
        <r>  0.0000  0.0000  0.0000  0.0000  0.4975  0.0000  0.0000  0.4976  0.0000 </r>
       </set>
       <set comment="band 6">
        <r>  0.0000  0.0000  0.0000  0.5812  0.0091  0.0000  0.0000  0.0091  0.0000 </r>
       </set>
       <set comment="band 7">
        <r>  0.4066  0.0009  0.0009  0.0000  0.0000  0.0000  0.0854  0.0000  0.2561 </r>
       </set>
       <set comment="band 8">
        <r>  0.0195  0.2683  0.2681  0.0000  0.0000  0.0332  0.0011  0.0000  0.0032 </r>
       </set>
       <set comment="band 9">
        <r>  0.0000  0.2893  0.2895  0.0000  0.0000  0.0000  0.0016  0.0000  0.0005 </r>
       </set>
       <set comment="band 10">
        <r>  0.0067  0.0083  0.0083  0.0000  0.0000  0.6897  0.0007  0.0000  0.0021 </r>
       </set>
       <set comment="band 11">
        <r>  0.3914  0.0127  0.0127  0.0000  0.0000  0.0051  0.0532  0.0000  0.1595 </r>
       </set>
       <set comment="band 12">
        <r>  0.0000  0.0000  0.0000  0.0000  0.0198  0.0000  0.0000  0.0198  0.0000 </r>
       </set>
       <set comment="band 13">
        <r>  0.0000  0.0000  0.0000  0.0744  0.0506  0.0000  0.0000  0.0506  0.0000 </r>
       </set>
       <set comment="band 14">
        <r>  0.0003  0.0871  0.1549  0.0000  0.0000  0.0001  0.1202  0.0000  0.0306 </r>
       </set>
      </set>
      <set comment="kpoint 395">
       <set comment="band 1">
        <r>  0.0431  0.0003  0.0003  0.0000  0.0000  0.0000  0.2015  0.0000  0.6046 </r>
       </set>
       <set comment="band 2">
        <r>  0.0000  0.0003  0.0003  0.0000  0.0000  0.9167  0.0000  0.0000  0.0000 </r>
       </set>
       <set comment="band 3">
        <r>  0.0000  0.0001  0.0001  0.0000  0.0000  0.0000  0.7447  0.0000  0.2482 </r>
       </set>
       <set comment="band 4">
        <r>  0.0000  0.0000  0.0000  0.0066  0.4916  0.0000  0.0000  0.4915  0.0000 </r>
       </set>
       <set comment="band 5">
        <r>  0.0000  0.0000  0.0000  0.0000  0.4975  0.0000  0.0000  0.4976  0.0000 </r>
       </set>
       <set comment="band 6">
        <r>  0.0000  0.0000  0.0000  0.5841  0.0065  0.0000  0.0000  0.0065  0.0000 </r>
       </set>
       <set comment="band 7">
        <r>  0.4071  0.0006  0.0006  0.0000  0.0000  0.0000  0.0855  0.0000  0.2565 </r>
       </set>
       <set comment="band 8">
        <r>  0.0142  0.2739  0.2737  0.0000  0.0000  0.0249  0.0008  0.0000  0.0024 </r>
       </set>
       <set comment="band 9">
        <r>  0.0000  0.2895  0.2897  0.0000  0.0000  0.0000  0.0011  0.0000  0.0004 </r>
       </set>
       <set comment="band 10">
        <r>  0.0035  0.0068  0.0068  0.0000  0.0000  0.7009  0.0004  0.0000  0.0011 </r>
       </set>
       <set comment="band 11">
        <r>  0.3996  0.0089  0.0089  0.0000  0.0000  0.0026  0.0538  0.0000  0.1614 </r>
       </set>
       <set comment="band 12">
        <r>  0.0000  0.0000  0.0000  0.0000  0.0145  0.0000  0.0000  0.0145  0.0000 </r>
       </set>
       <set comment="band 13">
        <r>  0.0000  0.0000  0.0000  0.0769  0.0440  0.0000  0.0000  0.0440  0.0000 </r>
       </set>
       <set comment="band 14">
        <r>  0.0001  0.1109  0.1338  0.0000  0.0000  0.0000  0.0886  0.0000  0.0270 </r>
       </set>
      </set>
      <set comment="kpoint 396">
       <set comment="band 1">
        <r>  0.0433  0.0002  0.0002  0.0000  0.0000  0.0000  0.2015  0.0000  0.6045 </r>
       </set>
       <set comment="band 2">
        <r>  0.0000  0.0002  0.0002  0.0000  0.0000  0.9170  0.0000  0.0000  0.0000 </r>
       </set>
       <set comment="band 3">
        <r>  0.0000  0.0000  0.0000  0.0000  0.0000  0.0000  0.7448  0.0000  0.2483 </r>
       </set>
       <set comment="band 4">
        <r>  0.0000  0.0000  0.0000  0.0043  0.4938  0.0000  0.0000  0.4936  0.0000 </r>
       </set>
       <set comment="band 5">
        <r>  0.0000  0.0000  0.0000  0.0000  0.4975  0.0000  0.0000  0.4977  0.0000 </r>
       </set>
       <set comment="band 6">
        <r>  0.0000  0.0000  0.0000  0.5866  0.0042  0.0000  0.0000  0.0042  0.0000 </r>
       </set>
       <set comment="band 7">
        <r>  0.4075  0.0004  0.0004  0.0000  0.0000  0.0000  0.0856  0.0000  0.2567 </r>
       </set>
       <set comment="band 8">
        <r>  0.0095  0.2791  0.2788  0.0000  0.0000  0.0171  0.0005  0.0000  0.0016 </r>
       </set>
       <set comment="band 9">
        <r>  0.0000  0.2895  0.2899  0.0000  0.0000  0.0000  0.0007  0.0000  0.0002 </r>
       </set>
       <set comment="band 10">
        <r>  0.0015  0.0050  0.0050  0.0000  0.0000  0.7106  0.0002  0.0000  0.0005 </r>
       </set>
       <set comment="band 11">
        <r>  0.4060  0.0057  0.0057  0.0000  0.0000  0.0011  0.0543  0.0000  0.1628 </r>
       </set>
       <set comment="band 12">
        <r>  0.0000  0.0000  0.0000  0.0000  0.0097  0.0000  0.0000  0.0097  0.0000 </r>
       </set>
       <set comment="band 13">
        <r>  0.0000  0.0000  0.0000  0.0803  0.0358  0.0000  0.0000  0.0358  0.0000 </r>
       </set>
       <set comment="band 14">
        <r>  0.0009  0.2084  0.0375  0.0000  0.0001  0.0003  0.0428  0.0001  0.0269 </r>
       </set>
      </set>
      <set comment="kpoint 397">
       <set comment="band 1">
        <r>  0.0435  0.0001  0.0001  0.0000  0.0000  0.0000  0.2015  0.0000  0.6044 </r>
       </set>
       <set comment="band 2">
        <r>  0.0000  0.0001  0.0001  0.0000  0.0000  0.9172  0.0000  0.0000  0.0000 </r>
       </set>
       <set comment="band 3">
        <r>  0.0000  0.0000  0.0000  0.0000  0.0000  0.0000  0.7449  0.0000  0.2483 </r>
       </set>
       <set comment="band 4">
        <r>  0.0000  0.0000  0.0000  0.0025  0.4955  0.0000  0.0000  0.4952  0.0000 </r>
       </set>
       <set comment="band 5">
        <r>  0.0000  0.0000  0.0000  0.0000  0.4974  0.0000  0.0000  0.4978  0.0000 </r>
       </set>
       <set comment="band 6">
        <r>  0.0000  0.0000  0.0000  0.5886  0.0024  0.0000  0.0000  0.0024  0.0000 </r>
       </set>
       <set comment="band 7">
        <r>  0.4078  0.0002  0.0002  0.0000  0.0000  0.0000  0.0856  0.0000  0.2569 </r>
       </set>
       <set comment="band 8">
        <r>  0.0055  0.2837  0.2831  0.0000  0.0000  0.0102  0.0003  0.0000  0.0009 </r>
       </set>
       <set comment="band 9">
        <r>  0.0000  0.2895  0.2901  0.0000  0.0000  0.0000  0.0004  0.0000  0.0001 </r>
       </set>
       <set comment="band 10">
        <r>  0.0005  0.0031  0.0031  0.0000  0.0000  0.7185  0.0001  0.0000  0.0002 </r>
       </set>
       <set comment="band 11">
        <r>  0.4107  0.0032  0.0032  0.0000  0.0000  0.0004  0.0546  0.0000  0.1638 </r>
       </set>
       <set comment="band 12">
        <r>  0.0000  0.0000  0.0000  0.0000  0.0057  0.0000  0.0000  0.0057  0.0000 </r>
       </set>
       <set comment="band 13">
        <r>  0.0000  0.0000  0.0000  0.0847  0.0257  0.0000  0.0000  0.0258  0.0000 </r>
       </set>
       <set comment="band 14">
        <r>  0.0011  0.2336  0.0148  0.0000  0.0000  0.0003  0.0202  0.0000  0.0168 </r>
       </set>
      </set>
      <set comment="kpoint 398">
       <set comment="band 1">
        <r>  0.0436  0.0000  0.0000  0.0000  0.0000  0.0000  0.2014  0.0000  0.6043 </r>
       </set>
       <set comment="band 2">
        <r>  0.0000  0.0000  0.0000  0.0000  0.0000  0.9173  0.0000  0.0000  0.0000 </r>
       </set>
       <set comment="band 3">
        <r>  0.0000  0.0000  0.0000  0.0000  0.0000  0.0000  0.7450  0.0000  0.2483 </r>
       </set>
       <set comment="band 4">
        <r>  0.0000  0.0000  0.0000  0.0011  0.4970  0.0000  0.0000  0.4962  0.0000 </r>
       </set>
       <set comment="band 5">
        <r>  0.0000  0.0000  0.0000  0.0000  0.4973  0.0000  0.0000  0.4980  0.0000 </r>
       </set>
       <set comment="band 6">
        <r>  0.0000  0.0000  0.0000  0.5901  0.0011  0.0000  0.0000  0.0011  0.0000 </r>
       </set>
       <set comment="band 7">
        <r>  0.4080  0.0001  0.0001  0.0000  0.0000  0.0000  0.0857  0.0000  0.2571 </r>
       </set>
       <set comment="band 8">
        <r>  0.0025  0.2876  0.2862  0.0000  0.0000  0.0047  0.0001  0.0000  0.0004 </r>
       </set>
       <set comment="band 9">
        <r>  0.0000  0.2892  0.2905  0.0000  0.0000  0.0000  0.0002  0.0000  0.0001 </r>
       </set>
       <set comment="band 10">
        <r>  0.0001  0.0015  0.0015  0.0000  0.0000  0.7244  0.0000  0.0000  0.0000 </r>
       </set>
       <set comment="band 11">
        <r>  0.4140  0.0014  0.0014  0.0000  0.0000  0.0001  0.0548  0.0000  0.1644 </r>
       </set>
       <set comment="band 12">
        <r>  0.0000  0.0000  0.0000  0.0000  0.0026  0.0000  0.0000  0.0026  0.0000 </r>
       </set>
       <set comment="band 13">
        <r>  0.0000  0.0000  0.0000  0.0898  0.0145  0.0000  0.0000  0.0145  0.0000 </r>
       </set>
       <set comment="band 14">
        <r>  0.0010  0.2486  0.0002  0.0000  0.0012  0.0003  0.0048  0.0002  0.0073 </r>
       </set>
      </set>
      <set comment="kpoint 399">
       <set comment="band 1">
        <r>  0.0437  0.0000  0.0000  0.0000  0.0000  0.0000  0.2014  0.0000  0.6043 </r>
       </set>
       <set comment="band 2">
        <r>  0.0000  0.0000  0.0000  0.0000  0.0000  0.9174  0.0000  0.0000  0.0000 </r>
       </set>
       <set comment="band 3">
        <r>  0.0000  0.0000  0.0000  0.0000  0.0000  0.0000  0.7451  0.0000  0.2484 </r>
       </set>
       <set comment="band 4">
        <r>  0.0000  0.0000  0.0000  0.0003  0.4988  0.0000  0.0000  0.4959  0.0000 </r>
       </set>
       <set comment="band 5">
        <r>  0.0000  0.0000  0.0000  0.0000  0.4962  0.0000  0.0000  0.4990  0.0000 </r>
       </set>
       <set comment="band 6">
        <r>  0.0000  0.0000  0.0000  0.5910  0.0003  0.0000  0.0000  0.0003  0.0000 </r>
       </set>
       <set comment="band 7">
        <r>  0.4081  0.0000  0.0000  0.0000  0.0000  0.0000  0.0857  0.0000  0.2572 </r>
       </set>
       <set comment="band 8">
        <r>  0.0006  0.2919  0.2864  0.0000  0.0000  0.0012  0.0000  0.0000  0.0001 </r>
       </set>
       <set comment="band 9">
        <r>  0.0000  0.2872  0.2926  0.0000  0.0000  0.0000  0.0000  0.0000  0.0000 </r>
       </set>
       <set comment="band 10">
        <r>  0.0000  0.0004  0.0004  0.0000  0.0000  0.7281  0.0000  0.0000  0.0000 </r>
       </set>
       <set comment="band 11">
        <r>  0.4158  0.0004  0.0004  0.0000  0.0000  0.0000  0.0549  0.0000  0.1648 </r>
       </set>
       <set comment="band 12">
        <r>  0.0000  0.0000  0.0000  0.0000  0.0007  0.0000  0.0000  0.0007  0.0000 </r>
       </set>
       <set comment="band 13">
        <r>  0.0000  0.0000  0.0000  0.0946  0.0043  0.0000  0.0000  0.0044  0.0000 </r>
       </set>
       <set comment="band 14">
        <r>  0.0004  0.2045  0.0224  0.0000  0.0249  0.0001  0.0004  0.0100  0.0014 </r>
       </set>
      </set>
      <set comment="kpoint 400">
       <set comment="band 1">
        <r>  0.0437  0.0000  0.0000  0.0000  0.0000  0.0000  0.2014  0.0000  0.6043 </r>
       </set>
       <set comment="band 2">
        <r>  0.0000  0.0000  0.0000  0.0000  0.0000  0.9174  0.0000  0.0000  0.0000 </r>
       </set>
       <set comment="band 3">
        <r>  0.0000  0.0000  0.0000  0.0000  0.0000  0.0000  0.7451  0.0000  0.2484 </r>
       </set>
       <set comment="band 4">
        <r>  0.0000  0.0000  0.0000  0.0000  0.7823  0.0000  0.0000  0.2129  0.0000 </r>
       </set>
       <set comment="band 5">
        <r>  0.0000  0.0000  0.0000  0.0000  0.2129  0.0000  0.0000  0.7823  0.0000 </r>
       </set>
       <set comment="band 6">
        <r>  0.0000  0.0000  0.0000  0.5913  0.0000  0.0000  0.0000  0.0000  0.0000 </r>
       </set>
       <set comment="band 7">
        <r>  0.4081  0.0000  0.0000  0.0000  0.0000  0.0000  0.0857  0.0000  0.2572 </r>
       </set>
       <set comment="band 8">
        <r>  0.0000  0.5793  0.0005  0.0000  0.0000  0.0000  0.0000  0.0000  0.0000 </r>
       </set>
       <set comment="band 9">
        <r>  0.0000  0.0005  0.5793  0.0000  0.0000  0.0000  0.0000  0.0000  0.0000 </r>
       </set>
       <set comment="band 10">
        <r>  0.0000  0.0000  0.0000  0.0000  0.0000  0.7294  0.0000  0.0000  0.0000 </r>
       </set>
       <set comment="band 11">
        <r>  0.4165  0.0000  0.0000  0.0000  0.0000  0.0000  0.0550  0.0000  0.1649 </r>
       </set>
       <set comment="band 12">
        <r>  0.0000  0.0000  0.0000  0.0000  0.0000  0.0000  0.0000  0.0000  0.0000 </r>
       </set>
       <set comment="band 13">
        <r>  0.0000  0.0000  0.0000  0.0966  0.0000  0.0000  0.0000  0.0000  0.0000 </r>
       </set>
       <set comment="band 14">
        <r>  0.0000  0.0588  0.0128  0.0000  0.2355  0.0000  0.0000  0.0117  0.0000 </r>
       </set>
      </set>
     </set>
    </set>
   </array>
  </projected>
 </calculation>
 <structure name="finalpos" >
  <crystal>
   <varray name="basis" >
    <v>       1.81000000      1.81000000      0.00000000</v>
    <v>       0.00000000      1.81000000      1.81000000</v>
    <v>       1.81000000      0.00000000      1.81000000</v>
   </varray>
   <i name="volume">     11.85948200</i>
   <varray name="rec_basis" >
    <v>       0.27624309      0.27624309     -0.27624309</v>
    <v>      -0.27624309      0.27624309      0.27624309</v>
    <v>       0.27624309     -0.27624309      0.27624309</v>
   </varray>
  </crystal>
  <varray name="positions" >
   <v>       0.00000000      0.00000000      0.00000000</v>
  </varray>
 </structure>
</modeling>
