unknown system                          
   3.62000000000000     
     0.500000    0.500000    0.000000
     0.000000    0.500000    0.500000
     0.500000    0.000000    0.500000
   1
Direct
  0.000000  0.000000  0.000000
 
   18   18   18
  176.87      163.08      127.45      83.532      44.861      19.295      7.4701      4.2949      3.3638      3.0990    
  3.3638      4.2949      7.4701      19.295      44.861      83.532      127.45      163.08      163.08      138.44    
  99.099      58.800      28.152      11.113      5.0947      3.6711      3.1164      3.1178      3.6738      5.0944    
  11.109      28.152      58.812      99.114      138.45      163.08      127.45      99.099      64.251      33.935    
  14.525      6.1440      3.9940      3.1776      2.9469      3.1761      3.9935      6.1441      14.521      33.933    
  64.264      99.134      127.48      138.45      83.532      58.800      33.935      15.925      6.9366      4.2387    
  3.2633      2.8511      2.8495      3.2613      4.2392      6.9358      15.919      33.935      58.823      83.571    
  99.134      99.114      44.861      28.152      14.525      6.9366      4.3341      3.3268      2.8080      2.6636    
  2.8074      3.3277      4.3354      6.9353      14.523      28.156      44.873      58.823      64.264      58.812    
  19.295      11.113      6.1440      4.2387      3.3268      2.7974      2.5794      2.5790      2.7971      3.3279    
  4.2403      6.1438      11.111      19.295      28.156      33.935      33.933      28.152      7.4701      5.0947    
  3.9940      3.2633      2.8080      2.5794      2.5112      2.5790      2.8070      3.2618      3.9932      5.0960    
  7.4730      11.111      14.523      15.919      14.521      11.109      4.2949      3.6711      3.1776      2.8511    
  2.6636      2.5790      2.5790      2.6632      2.8501      3.1768      3.6720      4.2973      5.0960      6.1438    
  6.9353      6.9358      6.1441      5.0944      3.3638      3.1164      2.9469      2.8495      2.8074      2.7971    
  2.8070      2.8501      2.9489      3.1181      3.3631      3.6720      3.9932      4.2403      4.3354      4.2392    
  3.9935      3.6738      3.0990      3.1178      3.1761      3.2613      3.3277      3.3279      3.2618      3.1768    
  3.1181      3.0990      3.1181      3.1768      3.2618      3.3279      3.3277      3.2613      3.1761      3.1178    
  3.3638      3.6738      3.9935      4.2392      4.3354      4.2403      3.9932      3.6720      3.3631      3.1181    
  2.9489      2.8501      2.8070      2.7971      2.8074      2.8495      2.9469      3.1164      4.2949      5.0944    
  6.1441      6.9358      6.9353      6.1438      5.0960      4.2973      3.6720      3.1768      2.8501      2.6632    
  2.5790      2.5790      2.6636      2.8511      3.1776      3.6711      7.4701      11.109      14.521      15.919    
  14.523      11.111      7.4730      5.0960      3.9932      3.2618      2.8070      2.5790      2.5112      2.5794    
  2.8080      3.2633      3.9940      5.0947      19.295      28.152      33.933      33.935      28.156      19.295    
  11.111      6.1438      4.2403      3.3279      2.7971      2.5790      2.5794      2.7974      3.3268      4.2387    
  6.1440      11.113      44.861      58.812      64.264      58.823      44.873      28.156      14.523      6.9353    
  4.3354      3.3277      2.8074      2.6636      2.8080      3.3268      4.3341      6.9366      14.525      28.152    
  83.532      99.114      99.134      83.571      58.823      33.935      15.919      6.9358      4.2392      3.2613    
  2.8495      2.8511      3.2633      4.2387      6.9366      15.925      33.935      58.800      127.45      138.45    
  127.48      99.134      64.264      33.933      14.521      6.1441      3.9935      3.1761      2.9469      3.1776    
  3.9940      6.1440      14.525      33.935      64.251      99.099      163.08      163.08      138.45      99.114    
  58.812      28.152      11.109      5.0944      3.6738      3.1178      3.1164      3.6711      5.0947      11.113    
  28.152      58.800      99.099      138.44      163.05      138.46      99.146      58.829      28.151      11.107    
  5.0977      3.6736      3.1131      3.1181      3.6787      5.0942      11.107      28.162      58.829      99.109    
  138.40      163.02      138.46      107.82      70.114      37.198      15.917      6.5250      4.1008      3.2441    
  2.9990      3.2437      4.0996      6.5275      15.928      37.208      70.093      107.76      138.40      150.30    
  99.146      70.114      40.762      19.165      7.9829      4.4718      3.3983      2.9420      2.9426      3.3971    
  4.4697      7.9886      19.178      40.762      70.085      99.105      117.37      117.39      58.829      37.198    
  19.165      8.6074      4.7287      3.5334      2.9239      2.7582      2.9294      3.5328      4.7239      8.6114    
  19.176      37.197      58.812      76.726      83.717      76.744      28.151      15.917      7.9829      4.7287    
  3.5909      2.9319      2.6616      2.6632      2.9333      3.5883      4.7269      7.9888      15.926      28.150    
  40.980      49.257      49.264      40.992      11.107      6.5250      4.4718      3.5334      2.9319      2.6350    
  2.5503      2.6344      2.9309      3.5332      4.4737      6.5286      11.109      17.559      23.333      25.653    
  23.335      17.560      5.0977      4.1008      3.3983      2.9239      2.6616      2.5503      2.5513      2.6639    
  2.9255      3.3972      4.0973      5.0957      6.9642      9.3669      11.081      11.077      9.3599      6.9608    
  3.6736      3.2441      2.9420      2.7582      2.6632      2.6344      2.6639      2.7595      2.9428      3.2432    
  3.6720      4.1809      4.7186      5.2549      5.4930      5.2537      4.7175      4.1814      3.1131      2.9990    
  2.9426      2.9294      2.9333      2.9309      2.9255      2.9428      3.0043      3.1177      3.2859      3.4973    
  3.7050      3.8366      3.8380      3.7092      3.5023      3.2869      3.1181      3.2437      3.3971      3.5328    
  3.5883      3.5332      3.3972      3.2432      3.1177      3.0339      2.9929      2.9951      3.0234      3.0404    
  3.0245      2.9958      2.9926      3.0335      3.6787      4.0996      4.4697      4.7239      4.7269      4.4737    
  4.0973      3.6720      3.2859      2.9929      2.7984      2.6874      2.6407      2.6413      2.6869      2.7947    
  2.9899      3.2890      5.0942      6.5275      7.9886      8.6114      7.9888      6.5286      5.0957      4.1809    
  3.4973      2.9951      2.6874      2.5283      2.4790      2.5278      2.6877      2.9968      3.4988      4.1806    
  11.107      15.928      19.178      19.176      15.926      11.109      6.9642      4.7186      3.7050      3.0234    
  2.6407      2.4790      2.4777      2.6394      3.0259      3.7095      4.7190      6.9597      28.162      37.208    
  40.762      37.197      28.150      17.559      9.3669      5.2549      3.8366      3.0404      2.6413      2.5278    
  2.6394      3.0404      3.8376      5.2531      9.3647      17.564      58.829      70.093      70.085      58.812    
  40.980      23.333      11.081      5.4930      3.8380      3.0245      2.6869      2.6877      3.0259      3.8376    
  5.4894      11.077      23.336      40.994      99.109      107.76      99.105      76.726      49.257      25.653    
  11.077      5.2537      3.7092      2.9958      2.7947      2.9968      3.7095      5.2531      11.077      25.655    
  49.260      76.731      138.40      138.40      117.37      83.717      49.264      23.335      9.3599      4.7175    
  3.5023      2.9926      2.9899      3.4988      4.7190      9.3647      23.336      49.260      83.711      117.37    
  163.02      150.30      117.39      76.744      40.992      17.560      6.9608      4.1814      3.2869      3.0335    
  3.2890      4.1806      6.9597      17.564      40.994      76.731      117.37      150.28      127.42      99.089    
  64.263      33.952      14.532      6.1448      3.9959      3.1793      2.9465      3.1768      3.9960      6.1448    
  14.521      33.938      64.275      99.140      127.47      138.42      99.089      70.091      40.781      19.192    
  7.9920      4.4708      3.4006      2.9450      2.9417      3.3973      4.4734      7.9901      19.177      40.768    
  70.107      99.128      117.37      117.35      64.263      40.781      21.066      9.3273      4.8892      3.6057    
  2.9712      2.7948      2.9710      3.6087      4.8912      9.3182      21.048      40.772      64.276      83.697    
  91.252      83.678      33.952      19.192      9.3273      5.0722      3.7371      3.0106      2.7115      2.7119    
  3.0125      3.7408      5.0727      9.3172      19.175      33.944      49.252      59.068      59.062      49.245    
  14.532      7.9920      4.8892      3.7371      3.0324      2.6812      2.5797      2.6778      3.0313      3.7402    
  4.8916      7.9881      14.521      23.329      31.054      34.136      31.061      23.340      6.1448      4.4708    
  3.6057      3.0106      2.6812      2.5427      2.5411      2.6786      3.0103      3.6078      4.4729      6.1437    
  9.3637      13.270      15.973      15.977      13.279      9.3701      3.9959      3.4006      2.9712      2.7115    
  2.5797      2.5411      2.5827      2.7134      2.9693      3.3970      3.9936      4.7182      5.7802      6.8961    
  7.3812      6.8947      5.7786      4.7180      3.1793      2.9450      2.7948      2.7119      2.6778      2.6786    
  2.7134      2.7947      2.9427      3.1769      3.4973      3.8591      4.1760      4.3713      4.3708      4.1746    
  3.8576      3.4976      2.9465      2.9417      2.9710      3.0125      3.0313      3.0103      2.9693      2.9427    
  2.9489      2.9924      3.0764      3.1915      3.2978      3.3416      3.2982      3.1932      3.0781      2.9917    
  3.1768      3.3973      3.6087      3.7408      3.7402      3.6078      3.3970      3.1769      2.9924      2.8582    
  2.7768      2.7432      2.7376      2.7372      2.7427      2.7771      2.8590      2.9927      3.9960      4.4734    
  4.8912      5.0727      4.8916      4.4729      3.9936      3.4973      3.0764      2.7768      2.5901      2.4912    
  2.4604      2.4906      2.5887      2.7756      3.0773      3.5000      6.1448      7.9901      9.3182      9.3172    
  7.9881      6.1437      4.7182      3.8591      3.1915      2.7432      2.4912      2.3807      2.3807      2.4914    
  2.7434      3.1910      3.8579      4.7177      14.521      19.177      21.048      19.175      14.521      9.3637    
  5.7802      4.1760      3.2978      2.7376      2.4604      2.3807      2.4609      2.7380      3.2981      4.1757    
  5.7782      9.3613      33.938      40.768      40.772      33.944      23.329      13.270      6.8961      4.3713    
  3.3416      2.7372      2.4906      2.4914      2.7380      3.3400      4.3693      6.8979      13.274      23.329    
  64.275      70.107      64.276      49.252      31.054      15.973      7.3812      4.3708      3.2982      2.7427    
  2.5887      2.7434      3.2981      4.3693      7.3809      15.976      31.058      49.253      99.140      99.128    
  83.697      59.068      34.136      15.977      6.8947      4.1746      3.1932      2.7771      2.7756      3.1910    
  4.1757      6.8979      15.976      34.134      59.077      83.719      127.47      117.37      91.252      59.062    
  31.061      13.279      5.7786      3.8576      3.0781      2.8590      3.0773      3.8579      5.7782      13.274    
  31.058      59.077      91.288      117.40      138.42      117.35      83.678      49.245      23.340      9.3701    
  4.7180      3.4976      2.9917      2.9927      3.5000      4.7177      9.3613      23.329      49.253      83.719    
  117.40      138.44      83.567      58.805      33.914      15.905      6.9331      4.2418      3.2627      2.8493    
  2.8503      3.2617      4.2372      6.9349      15.920      33.932      58.810      83.558      99.143      99.149    
  58.805      37.173      19.155      8.6109      4.7344      3.5358      2.9246      2.7590      2.9299      3.5330    
  4.7245      8.6123      19.175      37.198      58.819      76.743      83.731      76.739      33.914      19.155    
  9.3172      5.0805      3.7440      3.0110      2.7113      2.7132      3.0130      3.7400      5.0731      9.3186    
  19.173      33.941      49.262      59.098      59.090      49.240      15.905      8.6109      5.0805      3.8203    
  3.0682      2.6965      2.5941      2.6964      3.0679      3.8181      5.0762      8.6104      15.917      25.656    
  34.155      37.530      34.135      25.633      6.9331      4.7344      3.7440      3.0682      2.6934      2.5423    
  2.5422      2.6930      3.0670      3.7408      4.7307      6.9341      11.077      15.980      19.329      19.323    
  15.967      11.068      4.2418      3.5358      3.0110      2.6965      2.5423      2.4966      2.5417      2.6961    
  3.0101      3.5337      4.2407      5.2542      6.8954      8.5732      9.2894      8.5710      6.8919      5.2522    
  3.2627      2.9246      2.7113      2.5941      2.5422      2.5417      2.5940      2.7132      2.9267      3.2618    
  3.7055      4.1762      4.6162      4.9358      4.9345      4.6148      4.1779      3.7089      2.8493      2.7590    
  2.7132      2.6964      2.6930      2.6961      2.7132      2.7596      2.8500      2.9953      3.1917      3.4045    
  3.5719      3.6355      3.5719      3.4047      3.1919      2.9951      2.8503      2.9299      3.0130      3.0679    
  3.0670      3.0101      2.9267      2.8500      2.7978      2.7768      2.7896      2.8270      2.8610      2.8627    
  2.8295      2.7885      2.7719      2.7938      3.2617      3.5330      3.7400      3.8181      3.7408      3.5337    
  3.2618      2.9953      2.7768      2.6195      2.5217      2.4740      2.4608      2.4737      2.5213      2.6191    
  2.7765      2.9952      4.2372      4.7245      5.0731      5.0762      4.7307      4.2407      3.7055      3.1917    
  2.7896      2.5217      2.3662      2.2956      2.2949      2.3643      2.5206      2.7917      3.1961      3.7076    
  6.9349      8.6123      9.3186      8.6104      6.9341      5.2542      4.1762      3.4045      2.8270      2.4740    
  2.2956      2.2416      2.2955      2.4748      2.8280      3.4036      4.1733      5.2523      15.920      19.175    
  19.173      15.917      11.077      6.8954      4.6162      3.5719      2.8610      2.4608      2.2949      2.2955    
  2.4622      2.8622      3.5713      4.6127      6.8910      11.076      33.932      37.198      33.941      25.656    
  15.980      8.5732      4.9358      3.6355      2.8627      2.4737      2.3643      2.4748      2.8622      3.6337    
  4.9365      8.5766      15.980      25.648      58.810      58.819      49.262      34.155      19.329      9.2894    
  4.9345      3.5719      2.8295      2.5213      2.5206      2.8280      3.5713      4.9365      9.2933      19.329    
  34.142      49.243      83.558      76.743      59.098      37.530      19.323      8.5710      4.6148      3.4047    
  2.7885      2.6191      2.7917      3.4036      4.6127      8.5766      19.329      37.518      59.067      76.717    
  99.143      83.731      59.090      34.135      15.967      6.8919      4.1779      3.1919      2.7719      2.7765    
  3.1961      4.1733      6.8910      15.980      34.142      59.067      83.689      99.121      99.149      76.739    
  49.240      25.633      11.068      5.2522      3.7089      2.9951      2.7938      2.9952      3.7076      5.2523    
  11.076      25.648      49.243      76.717      99.121      107.81      44.899      28.186      14.535      6.9284    
  4.3243      3.3234      2.8076      2.6624      2.8060      3.3275      4.3348      6.9336      14.523      28.156    
  44.862      58.799      64.246      58.824      28.186      15.940      7.9799      4.7146      3.5839      2.9322    
  2.6615      2.6617      2.9331      3.5888      4.7259      7.9875      15.927      28.150      40.971      49.236    
  49.252      41.009      14.535      7.9799      4.8734      3.7287      3.0318      2.6818      2.5785      2.6772    
  3.0318      3.7397      4.8903      7.9882      14.521      23.324      31.051      34.145      31.082      23.359    
  6.9284      4.7146      3.7287      3.0649      2.6956      2.5423      2.5399      2.6926      3.0680      3.7396    
  4.7287      6.9348      11.077      15.973      19.325      19.338      15.997      11.089      4.3243      3.5839    
  3.0318      2.6956      2.5286      2.4806      2.5299      2.6934      3.0285      3.5886      4.3373      5.4926    
  7.3791      9.2914      10.110      9.3016      7.3845      5.4843      3.3234      2.9322      2.6818      2.5423    
  2.4806      2.4813      2.5422      2.6790      2.9303      3.3275      3.8395      4.3705      4.9367      5.3692    
  5.3718      4.9393      4.3663      3.8311      2.8076      2.6615      2.5785      2.5399      2.5299      2.5422    
  2.5820      2.6638      2.8069      3.0240      3.2984      3.5723      3.7715      3.8428      3.7696      3.5710    
  3.2996      3.0266      2.6624      2.6617      2.6772      2.6926      2.6934      2.6790      2.6638      2.6633    
  2.6876      2.7432      2.8274      2.9177      2.9766      2.9759      2.9168      2.8283      2.7453      2.6887    
  2.8060      2.9331      3.0318      3.0680      3.0285      2.9303      2.8069      2.6876      2.5896      2.5219    
  2.4868      2.4766      2.4764      2.4779      2.4883      2.5217      2.5869      2.6841      3.3275      3.5888    
  3.7397      3.7396      3.5886      3.3275      3.0240      2.7432      2.5219      2.3675      2.2733      2.2298    
  2.2299      2.2737      2.3680      2.5218      2.7426      3.0236      4.3348      4.7259      4.8903      4.7287    
  4.3373      3.8395      3.2984      2.8274      2.4868      2.2733      2.1591      2.1234      2.1590      2.2726    
  2.4867      2.8294      3.3013      3.8401      6.9336      7.9875      7.9882      6.9348      5.4926      4.3705    
  3.5723      2.9177      2.4766      2.2298      2.1234      2.1236      2.2302      2.4765      2.9173      3.5724    
  4.3710      5.4923      14.523      15.927      14.521      11.077      7.3791      4.9367      3.7715      2.9766    
  2.4764      2.2299      2.1590      2.2302      2.4768      2.9766      3.7708      4.9359      7.3794      11.078    
  28.156      28.150      23.324      15.973      9.2914      5.3692      3.8428      2.9759      2.4779      2.2737    
  2.2726      2.4765      2.9766      3.8444      5.3686      9.2904      15.977      23.334      44.862      40.971    
  31.051      19.325      10.110      5.3718      3.7696      2.9168      2.4883      2.3680      2.4867      2.9173    
  3.7708      5.3686      10.105      19.328      31.065      40.985      58.799      49.236      34.145      19.338    
  9.3016      4.9393      3.5710      2.8283      2.5217      2.5218      2.8294      3.5724      4.9359      9.2904    
  19.328      34.151      49.257      58.811      64.246      49.252      31.082      15.997      7.3845      4.3663    
  3.2996      2.7453      2.5869      2.7426      3.3013      4.3710      7.3794      15.977      31.065      49.257    
  64.261      70.073      58.824      41.009      23.359      11.089      5.4843      3.8311      3.0266      2.6887    
  2.6841      3.0236      3.8401      5.4923      11.078      23.334      40.985      58.811      70.073      70.077    
  19.268      11.110      6.1636      4.2579      3.3316      2.7951      2.5796      2.5805      2.7966      3.3275    
  4.2418      6.1445      11.111      19.298      28.164      33.942      33.924      28.125      11.110      6.5492    
  4.4949      3.5418      2.9300      2.6331      2.5512      2.6347      2.9301      3.5338      4.4749      6.5281    
  11.110      17.564      23.335      25.639      23.304      17.537      6.1636      4.4949      3.6152      3.0062    
  2.6759      2.5421      2.5419      2.6781      3.0097      3.6085      4.4733      6.1428      9.3645      13.273    
  15.971      15.961      13.257      9.3648      4.2579      3.5418      3.0062      2.6898      2.5401      2.4964    
  2.5403      2.6952      3.0107      3.5333      4.2391      5.2540      6.8959      8.5700      9.2819      8.5659    
  6.8971      5.2677      3.3316      2.9300      2.6759      2.5401      2.4822      2.4816      2.5401      2.6783    
  2.9314      3.3268      3.8373      4.3708      4.9375      5.3643      5.3632      4.9382      4.3778      3.8470    
  2.7951      2.6331      2.5421      2.4964      2.4816      2.4952      2.5417      2.6344      2.7958      3.0398    
  3.3422      3.6357      3.8433      3.9168      3.8433      3.6377      3.3458      3.0418      2.5796      2.5512    
  2.5419      2.5403      2.5401      2.5417      2.5513      2.5795      2.6393      2.7377      2.8614      2.9766    
  3.0458      3.0462      2.9775      2.8623      2.7387      2.6401      2.5805      2.6347      2.6781      2.6952    
  2.6783      2.6344      2.5795      2.5283      2.4910      2.4739      2.4768      2.4887      2.4947      2.4881    
  2.4764      2.4741      2.4917      2.5294      2.7966      2.9301      3.0097      3.0107      2.9314      2.7958    
  2.6393      2.4910      2.3666      2.2733      2.2143      2.1874      2.1875      2.2138      2.2717      2.3654    
  2.4922      2.6417      3.3275      3.5338      3.6085      3.5333      3.3268      3.0398      2.7377      2.4739    
  2.2733      2.1371      2.0586      2.0327      2.0583      2.1371      2.2736      2.4743      2.7381      3.0404    
  4.2418      4.4749      4.4733      4.2391      3.8373      3.3422      2.8614      2.4768      2.2143      2.0586    
  1.9864      1.9859      2.0581      2.2152      2.4784      2.8617      3.3415      3.8380      6.1445      6.5281    
  6.1428      5.2540      4.3708      3.6357      2.9766      2.4887      2.1874      2.0327      1.9859      2.0331    
  2.1873      2.4878      2.9755      3.6355      4.3720      5.2563      11.111      11.110      9.3645      6.8959    
  4.9375      3.8433      3.0458      2.4947      2.1875      2.0583      2.0581      2.1873      2.4946      3.0449    
  3.8418      4.9372      6.8976      9.3664      19.298      17.564      13.273      8.5700      5.3643      3.9168    
  3.0462      2.4881      2.2138      2.1371      2.2152      2.4878      3.0449      3.9186      5.3689      8.5721    
  13.270      17.561      28.164      23.335      15.971      9.2819      5.3632      3.8433      2.9775      2.4764    
  2.2717      2.2736      2.4784      2.9755      3.8418      5.3689      9.2918      15.975      23.331      28.161    
  33.942      25.639      15.961      8.5659      4.9382      3.6377      2.8623      2.4741      2.3654      2.4743    
  2.8617      3.6355      4.9372      8.5721      15.975      25.654      33.951      37.216      33.924      23.304    
  13.257      6.8971      4.3778      3.3458      2.7387      2.4917      2.4922      2.7381      3.3415      4.3720    
  6.8976      13.270      23.331      33.951      40.783      40.772      28.125      17.537      9.3648      5.2677    
  3.8470      3.0418      2.6401      2.5294      2.6417      3.0404      3.8380      5.2563      9.3664      17.561    
  28.161      37.216      40.772      37.190      7.4519      5.0639      3.9748      3.2629      2.8154      2.5830    
  2.5107      2.5794      2.8086      3.2617      3.9924      5.0973      7.4735      11.108      14.524      15.937    
  14.547      11.119      5.0639      4.0774      3.3991      2.9371      2.6707      2.5519      2.5510      2.6650    
  2.9267      3.3971      4.0975      5.0971      6.9644      9.3670      11.089      11.095      9.3693      6.9444    
  3.9748      3.3991      2.9834      2.7221      2.5827      2.5412      2.5839      2.7144      2.9692      3.3975    
  3.9953      4.7187      5.7803      6.9008      7.3913      6.8993      5.7657      4.6913      3.2629      2.9371    
  2.7221      2.5963      2.5401      2.5413      2.5955      2.7135      2.9261      3.2626      3.7069      4.1760    
  4.6166      4.9406      4.9392      4.6084      4.1594      3.6930      2.8154      2.6707      2.5827      2.5401    
  2.5300      2.5426      2.5818      2.6635      2.8072      3.0242      3.2979      3.5722      3.7726      3.8434    
  3.7661      3.5625      3.2912      3.0258      2.5830      2.5519      2.5412      2.5413      2.5426      2.5427    
  2.5503      2.5790      2.6402      2.7376      2.8602      2.9766      3.0468      3.0447      2.9727      2.8580    
  2.7385      2.6437      2.5107      2.5510      2.5839      2.5955      2.5818      2.5503      2.5126      2.4794    
  2.4601      2.4602      2.4759      2.4944      2.5020      2.4941      2.4771      2.4629      2.4617      2.4781    
  2.5794      2.6650      2.7144      2.7135      2.6635      2.5790      2.4794      2.3809      2.2952      2.2297    
  2.1869      2.1660      2.1660      2.1874      2.2306      2.2954      2.3798      2.4783      2.8086      2.9267    
  2.9692      2.9261      2.8072      2.6402      2.4601      2.2952      2.1596      2.0587      1.9960      1.9752    
  1.9968      2.0583      2.1574      2.2929      2.4598      2.6416      3.2617      3.3971      3.3975      3.2626    
  3.0242      2.7376      2.4602      2.2297      2.0587      1.9458      1.8894      1.8895      1.9459      2.0582    
  2.2293      2.4603      2.7379      3.0238      3.9924      4.0975      3.9953      3.7069      3.2979      2.8602    
  2.4759      2.1869      1.9960      1.8894      1.8552      1.8893      1.9959      2.1873      2.4773      2.8617    
  3.2975      3.7041      5.0973      5.0971      4.7187      4.1760      3.5722      2.9766      2.4944      2.1660    
  1.9752      1.8895      1.8893      1.9749      2.1662      2.4948      2.9763      3.5709      4.1749      4.7186    
  7.4735      6.9644      5.7803      4.6166      3.7726      3.0468      2.5020      2.1660      1.9968      1.9459    
  1.9959      2.1662      2.5029      3.0458      3.7699      4.6146      5.7800      6.9648      11.108      9.3670    
  6.9008      4.9406      3.8434      3.0447      2.4941      2.1874      2.0583      2.0582      2.1873      2.4948    
  3.0458      3.8428      4.9369      6.8956      9.3632      11.107      14.524      11.089      7.3913      4.9392    
  3.7661      2.9727      2.4771      2.2306      2.1574      2.2293      2.4773      2.9763      3.7699      4.9369    
  7.3809      11.076      14.516      15.922      15.937      11.095      6.8993      4.6084      3.5625      2.8580    
  2.4629      2.2954      2.2929      2.4603      2.8617      3.5709      4.6146      6.8956      11.076      15.910    
  19.166      19.179      14.547      9.3693      5.7657      4.1594      3.2912      2.7385      2.4617      2.3798    
  2.4598      2.7379      3.2975      4.1749      5.7800      9.3632      14.516      19.166      21.050      19.198    
  11.119      6.9444      4.6913      3.6930      3.0258      2.6437      2.4781      2.4783      2.6416      3.0238    
  3.7041      4.7186      6.9648      11.107      15.922      19.179      19.198      15.956      4.3308      3.6848    
  3.1642      2.8318      2.6555      2.5792      2.5787      2.6617      2.8498      3.1768      3.6707      4.2962    
  5.0963      6.1412      6.9247      6.9234      6.1481      5.1237      3.6848      3.2324      2.9210      2.7463    
  2.6638      2.6368      2.6622      2.7583      2.9443      3.2428      3.6696      4.1811      4.7193      5.2496    
  5.4853      5.2578      4.7396      4.2083      3.1642      2.9210      2.7804      2.7115      2.6827      2.6804    
  2.7119      2.7946      2.9442      3.1763      3.4958      3.8600      4.1759      4.3670      4.3716      4.1915    
  3.8817      3.5063      2.8318      2.7463      2.7115      2.7000      2.6951      2.6962      2.7134      2.7603    
  2.8502      2.9952      3.1923      3.4052      3.5713      3.6358      3.5788      3.4175      3.1994      2.9874    
  2.6555      2.6638      2.6827      2.6951      2.6925      2.6787      2.6651      2.6638      2.6870      2.7436    
  2.8287      2.9177      2.9763      2.9792      2.9229      2.8298      2.7374      2.6765      2.5792      2.6368    
  2.6804      2.6962      2.6787      2.6349      2.5799      2.5284      2.4909      2.4743      2.4771      2.4885    
  2.4949      2.4899      2.4778      2.4718      2.4854      2.5238      2.5787      2.6622      2.7119      2.7134    
  2.6651      2.5799      2.4791      2.3807      2.2956      2.2298      2.1865      2.1660      2.1662      2.1868    
  2.2294      2.2952      2.3811      2.4796      2.6617      2.7583      2.7946      2.7603      2.6638      2.5284    
  2.3807      2.2417      2.1235      2.0327      1.9747      1.9547      1.9749      2.0329      2.1238      2.2423    
  2.3812      2.5276      2.8498      2.9443      2.9442      2.8502      2.6870      2.4909      2.2956      2.1235    
  1.9862      1.8896      1.8388      1.8385      1.8894      1.9870      2.1243      2.2948      2.4888      2.6853    
  3.1768      3.2428      3.1763      2.9952      2.7436      2.4743      2.2298      2.0327      1.8896      1.8018    
  1.7720      1.8018      1.8897      2.0330      2.2298      2.4735      2.7425      2.9950      3.6707      3.6696    