unknown system                          
   3.62000000000000     
     0.500000    0.500000    0.000000
     0.000000    0.500000    0.500000
     0.500000    0.000000    0.500000
   1
Direct
  0.000000  0.000000  0.000000
 
   18   18   18
 0.17687402437E+03 0.16307589990E+03 0.12745096795E+03 0.83532186711E+02 0.44861253414E+02
 0.19294787315E+02 0.74700916946E+01 0.42949342192E+01 0.33637612403E+01 0.30990008376E+01
 0.33637612403E+01 0.42949342192E+01 0.74700916946E+01 0.19294787315E+02 0.44861253414E+02
 0.83532186711E+02 0.12745096795E+03 0.16307589990E+03 0.16307589990E+03 0.13843903465E+03
 0.99099232450E+02 0.58800466702E+02 0.28151766404E+02 0.11113259451E+02 0.50947331001E+01
 0.36711061695E+01 0.31163985914E+01 0.31177600694E+01 0.36737919806E+01 0.50944311945E+01
 0.11108851028E+02 0.28151959377E+02 0.58812298067E+02 0.99114197635E+02 0.13844553241E+03
 0.16307628868E+03 0.12745096795E+03 0.99099232450E+02 0.64250952082E+02 0.33935448772E+02
 0.14524502142E+02 0.61440024843E+01 0.39940050435E+01 0.31775830967E+01 0.29468747004E+01
 0.31761230264E+01 0.39935237686E+01 0.61440935495E+01 0.14521436880E+02 0.33932782970E+02
 0.64263963483E+02 0.99134191590E+02 0.12748454883E+03 0.13844553241E+03 0.83532186711E+02
 0.58800466702E+02 0.33935448772E+02 0.15924774979E+02 0.69365884574E+01 0.42387286861E+01
 0.32632822863E+01 0.28510675060E+01 0.28495323472E+01 0.32613391908E+01 0.42392446423E+01
 0.69358131374E+01 0.15919034738E+02 0.33935407445E+02 0.58823245766E+02 0.83570960028E+02
 0.99134191590E+02 0.99114197635E+02 0.44861253414E+02 0.28151766404E+02 0.14524502142E+02
 0.69365884574E+01 0.43340727727E+01 0.33268260559E+01 0.28079984889E+01 0.26635822559E+01
 0.28074222820E+01 0.33277303274E+01 0.43353668405E+01 0.69352585046E+01 0.14522660445E+02
 0.28156100917E+02 0.44873169847E+02 0.58823245766E+02 0.64263963483E+02 0.58812298067E+02
 0.19294787315E+02 0.11113259451E+02 0.61440024843E+01 0.42387286861E+01 0.33268260559E+01
 0.27973685028E+01 0.25793736287E+01 0.25790317891E+01 0.27971092371E+01 0.33278548577E+01
 0.42403382135E+01 0.61437972595E+01 0.11111488457E+02 0.19295401911E+02 0.28156100917E+02
 0.33935407445E+02 0.33932782970E+02 0.28151959377E+02 0.74700916946E+01 0.50947331001E+01
 0.39940050435E+01 0.32632822863E+01 0.28079984889E+01 0.25793736287E+01 0.25112408311E+01
 0.25790296739E+01 0.28070274773E+01 0.32618134973E+01 0.39932382771E+01 0.50960072550E+01
 0.74730029766E+01 0.11111488457E+02 0.14522660445E+02 0.15919034738E+02 0.14521436880E+02
 0.11108851028E+02 0.42949342192E+01 0.36711061695E+01 0.31775830967E+01 0.28510675060E+01
 0.26635822559E+01 0.25790317891E+01 0.25790296739E+01 0.26632392706E+01 0.28500716950E+01
 0.31767870376E+01 0.36719756637E+01 0.42972625494E+01 0.50960072550E+01 0.61437972595E+01
 0.69352585046E+01 0.69358131374E+01 0.61440935495E+01 0.50944311945E+01 0.33637612403E+01
 0.31163985914E+01 0.29468747004E+01 0.28495323472E+01 0.28074222820E+01 0.27971092371E+01
 0.28070274773E+01 0.28500716950E+01 0.29488888985E+01 0.31180968761E+01 0.33631463097E+01
 0.36719756637E+01 0.39932382771E+01 0.42403382135E+01 0.43353668405E+01 0.42392446423E+01
 0.39935237686E+01 0.36737919806E+01 0.30990008376E+01 0.31177600694E+01 0.31761230264E+01
 0.32613391908E+01 0.33277303274E+01 0.33278548577E+01 0.32618134973E+01 0.31767870376E+01
 0.31180968761E+01 0.30990459807E+01 0.31180968761E+01 0.31767870376E+01 0.32618134973E+01
 0.33278548577E+01 0.33277303274E+01 0.32613391908E+01 0.31761230264E+01 0.31177600694E+01
 0.33637612403E+01 0.36737919806E+01 0.39935237686E+01 0.42392446423E+01 0.43353668405E+01
 0.42403382135E+01 0.39932382771E+01 0.36719756637E+01 0.33631463097E+01 0.31180968761E+01
 0.29488888985E+01 0.28500716950E+01 0.28070274773E+01 0.27971092371E+01 0.28074222820E+01
 0.28495323472E+01 0.29468747004E+01 0.31163985914E+01 0.42949342192E+01 0.50944311945E+01
 0.61440935495E+01 0.69358131374E+01 0.69352585046E+01 0.61437972595E+01 0.50960072550E+01
 0.42972625494E+01 0.36719756637E+01 0.31767870376E+01 0.28500716950E+01 0.26632392706E+01
 0.25790296739E+01 0.25790317891E+01 0.26635822559E+01 0.28510675060E+01 0.31775830967E+01
 0.36711061695E+01 0.74700916946E+01 0.11108851028E+02 0.14521436880E+02 0.15919034738E+02
 0.14522660445E+02 0.11111488457E+02 0.74730029766E+01 0.50960072550E+01 0.39932382771E+01
 0.32618134973E+01 0.28070274773E+01 0.25790296739E+01 0.25112408311E+01 0.25793736287E+01
 0.28079984889E+01 0.32632822863E+01 0.39940050435E+01 0.50947331001E+01 0.19294787315E+02
 0.28151959377E+02 0.33932782970E+02 0.33935407445E+02 0.28156100917E+02 0.19295401911E+02
 0.11111488457E+02 0.61437972595E+01 0.42403382135E+01 0.33278548577E+01 0.27971092371E+01
 0.25790317891E+01 0.25793736287E+01 0.27973685028E+01 0.33268260559E+01 0.42387286861E+01
 0.61440024843E+01 0.11113259451E+02 0.44861253414E+02 0.58812298067E+02 0.64263963483E+02
 0.58823245766E+02 0.44873169847E+02 0.28156100917E+02 0.14522660445E+02 0.69352585046E+01
 0.43353668405E+01 0.33277303274E+01 0.28074222820E+01 0.26635822559E+01 0.28079984889E+01
 0.33268260559E+01 0.43340727727E+01 0.69365884574E+01 0.14524502142E+02 0.28151766404E+02
 0.83532186711E+02 0.99114197635E+02 0.99134191590E+02 0.83570960028E+02 0.58823245766E+02
 0.33935407445E+02 0.15919034738E+02 0.69358131374E+01 0.42392446423E+01 0.32613391908E+01
 0.28495323472E+01 0.28510675060E+01 0.32632822863E+01 0.42387286861E+01 0.69365884574E+01
 0.15924774979E+02 0.33935448772E+02 0.58800466702E+02 0.12745096795E+03 0.13844553241E+03
 0.12748454883E+03 0.99134191590E+02 0.64263963483E+02 0.33932782970E+02 0.14521436880E+02
 0.61440935495E+01 0.39935237686E+01 0.31761230264E+01 0.29468747004E+01 0.31775830967E+01
 0.39940050435E+01 0.61440024843E+01 0.14524502142E+02 0.33935448772E+02 0.64250952082E+02
 0.99099232450E+02 0.16307589990E+03 0.16307628868E+03 0.13844553241E+03 0.99114197635E+02
 0.58812298067E+02 0.28151959377E+02 0.11108851028E+02 0.50944311945E+01 0.36737919806E+01
 0.31177600694E+01 0.31163985914E+01 0.36711061695E+01 0.50947331001E+01 0.11113259451E+02
 0.28151766404E+02 0.58800466702E+02 0.99099232450E+02 0.13843903465E+03 0.16304759131E+03
 0.13846136509E+03 0.99146471858E+02 0.58829198785E+02 0.28151090790E+02 0.11107001545E+02
 0.50977329414E+01 0.36736448506E+01 0.31131140608E+01 0.31180735331E+01 0.36787277059E+01
 0.50941724270E+01 0.11106783967E+02 0.28162073903E+02 0.58828851165E+02 0.99108824945E+02
 0.13840258570E+03 0.16301859443E+03 0.13846136509E+03 0.10782177302E+03 0.70113714180E+02
 0.37198238621E+02 0.15916823308E+02 0.65250261620E+01 0.41008264145E+01 0.32441452522E+01
 0.29990472994E+01 0.32437264054E+01 0.40995890836E+01 0.65274884300E+01 0.15928354649E+02
 0.37207798867E+02 0.70092962681E+02 0.10776238975E+03 0.13840477140E+03 0.15030238027E+03
 0.99146471858E+02 0.70113714180E+02 0.40762112481E+02 0.19165329366E+02 0.79828912390E+01
 0.44718336866E+01 0.33983390962E+01 0.29420422125E+01 0.29425525938E+01 0.33971265810E+01
 0.44696508059E+01 0.79886132409E+01 0.19178135065E+02 0.40762009288E+02 0.70085270830E+02
 0.99104830522E+02 0.11737350136E+03 0.11739342625E+03 0.58829198785E+02 0.37198238621E+02
 0.19165329366E+02 0.86074006904E+01 0.47287155079E+01 0.35334322851E+01 0.29239027698E+01
 0.27581587131E+01 0.29293888820E+01 0.35328185180E+01 0.47238566971E+01 0.86114133696E+01
 0.19175806964E+02 0.37197494942E+02 0.58811914247E+02 0.76726153860E+02 0.83717232549E+02
 0.76743803437E+02 0.28151090790E+02 0.15916823308E+02 0.79828912390E+01 0.47287155079E+01
 0.35908664966E+01 0.29318690539E+01 0.26616003830E+01 0.26632446453E+01 0.29332769780E+01
 0.35883011520E+01 0.47269331552E+01 0.79888266969E+01 0.15925849819E+02 0.28150311603E+02
 0.40980439637E+02 0.49256561799E+02 0.49263940244E+02 0.40992234976E+02 0.11107001545E+02
 0.65250261620E+01 0.44718336866E+01 0.35334322851E+01 0.29318690539E+01 0.26350141145E+01
 0.25503227877E+01 0.26344440450E+01 0.29309149867E+01 0.35331901988E+01 0.44737074333E+01
 0.65285697179E+01 0.11109455509E+02 0.17559308326E+02 0.23332687076E+02 0.25653341482E+02
 0.23334530306E+02 0.17559865744E+02 0.50977329414E+01 0.41008264145E+01 0.33983390962E+01
 0.29239027698E+01 0.26616003830E+01 0.25503227877E+01 0.25513157478E+01 0.26638748597E+01
 0.29255064170E+01 0.33972079789E+01 0.40972753210E+01 0.50956767513E+01 0.69641641052E+01
 0.93669303035E+01 0.11080999129E+02 0.11077325543E+02 0.93599391717E+01 0.69608049044E+01
 0.36736448506E+01 0.32441452522E+01 0.29420422125E+01 0.27581587131E+01 0.26632446453E+01
 0.26344440450E+01 0.26638748597E+01 0.27594580844E+01 0.29428385208E+01 0.32432323242E+01
 0.36719625195E+01 0.41809463068E+01 0.47186257995E+01 0.52549309934E+01 0.54929988796E+01
 0.52537374045E+01 0.47175324569E+01 0.41814003455E+01 0.31131140608E+01 0.29990472994E+01
 0.29425525938E+01 0.29293888820E+01 0.29332769780E+01 0.29309149867E+01 0.29255064170E+01
 0.29428385208E+01 0.30042947463E+01 0.31176953815E+01 0.32858766699E+01 0.34972953156E+01
 0.37050225026E+01 0.38366074950E+01 0.38379708351E+01 0.37092084371E+01 0.35022887180E+01
 0.32869072036E+01 0.31180735331E+01 0.32437264054E+01 0.33971265810E+01 0.35328185180E+01
 0.35883011520E+01 0.35331901988E+01 0.33972079789E+01 0.32432323242E+01 0.31176953815E+01
 0.30338968111E+01 0.29929334288E+01 0.29951382509E+01 0.30233722901E+01 0.30403985957E+01
 0.30244588836E+01 0.29957855145E+01 0.29925627395E+01 0.30335453497E+01 0.36787277059E+01
 0.40995890836E+01 0.44696508059E+01 0.47238566971E+01 0.47269331552E+01 0.44737074333E+01
 0.40972753210E+01 0.36719625195E+01 0.32858766699E+01 0.29929334288E+01 0.27984252988E+01
 0.26874091605E+01 0.26407078397E+01 0.26413248711E+01 0.26869028203E+01 0.27946679731E+01
 0.29899340374E+01 0.32889824870E+01 0.50941724270E+01 0.65274884300E+01 0.79886132409E+01
 0.86114133696E+01 0.79888266969E+01 0.65285697179E+01 0.50956767513E+01 0.41809463068E+01
 0.34972953156E+01 0.29951382509E+01 0.26874091605E+01 0.25283496545E+01 0.24790222186E+01
 0.25277592666E+01 0.26877145172E+01 0.29968174591E+01 0.34987602505E+01 0.41806476653E+01
 0.11106783967E+02 0.15928354649E+02 0.19178135065E+02 0.19175806964E+02 0.15925849819E+02
 0.11109455509E+02 0.69641641052E+01 0.47186257995E+01 0.37050225026E+01 0.30233722901E+01
 0.26407078397E+01 0.24790222186E+01 0.24776879750E+01 0.26394220854E+01 0.30259425358E+01
 0.37095076065E+01 0.47190183884E+01 0.69597450754E+01 0.28162073903E+02 0.37207798867E+02
 0.40762009288E+02 0.37197494942E+02 0.28150311603E+02 0.17559308326E+02 0.93669303035E+01
 0.52549309934E+01 0.38366074950E+01 0.30403985957E+01 0.26413248711E+01 0.25277592666E+01
 0.26394220854E+01 0.30403732528E+01 0.38376361889E+01 0.52531122269E+01 0.93646924697E+01
 0.17563788777E+02 0.58828851165E+02 0.70092962681E+02 0.70085270830E+02 0.58811914247E+02
 0.40980439637E+02 0.23332687076E+02 0.11080999129E+02 0.54929988796E+01 0.38379708351E+01
 0.30244588836E+01 0.26869028203E+01 0.26877145172E+01 0.30259425358E+01 0.38376361889E+01
 0.54893636045E+01 0.11077434740E+02 0.23336315932E+02 0.40994249276E+02 0.99108824945E+02
 0.10776238975E+03 0.99104830522E+02 0.76726153860E+02 0.49256561799E+02 0.25653341482E+02
 0.11077325543E+02 0.52537374045E+01 0.37092084371E+01 0.29957855145E+01 0.27946679731E+01
 0.29968174591E+01 0.37095076065E+01 0.52531122269E+01 0.11077434740E+02 0.25655253904E+02
 0.49260354432E+02 0.76731218733E+02 0.13840258570E+03 0.13840477140E+03 0.11737350136E+03
 0.83717232549E+02 0.49263940244E+02 0.23334530306E+02 0.93599391717E+01 0.47175324569E+01
 0.35022887180E+01 0.29925627395E+01 0.29899340374E+01 0.34987602505E+01 0.47190183884E+01
 0.93646924697E+01 0.23336315932E+02 0.49260354432E+02 0.83710822383E+02 0.11736790934E+03
 0.16301859443E+03 0.15030238027E+03 0.11739342625E+03 0.76743803437E+02 0.40992234976E+02
 0.17559865744E+02 0.69608049044E+01 0.41814003455E+01 0.32869072036E+01 0.30335453497E+01
 0.32889824870E+01 0.41806476653E+01 0.69597450754E+01 0.17563788777E+02 0.40994249276E+02
 0.76731218733E+02 0.11736790934E+03 0.15028160006E+03 0.12742133813E+03 0.99089373336E+02
 0.64263228192E+02 0.33952129277E+02 0.14531516873E+02 0.61448169093E+01 0.39958909140E+01
 0.31793184637E+01 0.29464770600E+01 0.31767844964E+01 0.39960046640E+01 0.61448202989E+01
 0.14521399118E+02 0.33938032113E+02 0.64274680609E+02 0.99140008307E+02 0.12747330479E+03
 0.13841677263E+03 0.99089373336E+02 0.70090699629E+02 0.40780648994E+02 0.19191923922E+02
 0.79919794433E+01 0.44708429852E+01 0.34006283029E+01 0.29449977581E+01 0.29416523136E+01
 0.33973311840E+01 0.44734049785E+01 0.79900847792E+01 0.19176531750E+02 0.40768202411E+02
 0.70106843276E+02 0.99127767855E+02 0.11736784873E+03 0.11734706060E+03 0.64263228192E+02
 0.40780648994E+02 0.21066438034E+02 0.93273098716E+01 0.48892178805E+01 0.36057001432E+01
 0.29712086524E+01 0.27947945090E+01 0.29709971862E+01 0.36086768177E+01 0.48911841707E+01
 0.93181814074E+01 0.21048231297E+02 0.40772160274E+02 0.64276149428E+02 0.83697267886E+02
 0.91251725274E+02 0.83678456519E+02 0.33952129277E+02 0.19191923922E+02 0.93273098716E+01
 0.50722219728E+01 0.37370544799E+01 0.30105730724E+01 0.27115400220E+01 0.27118881453E+01
 0.30124753447E+01 0.37407632956E+01 0.50726973173E+01 0.93171866281E+01 0.19174879644E+02
 0.33943957070E+02 0.49251677815E+02 0.59067583222E+02 0.59061596499E+02 0.49245262943E+02
 0.14531516873E+02 0.79919794433E+01 0.48892178805E+01 0.37370544799E+01 0.30324087025E+01
 0.26811766534E+01 0.25796786927E+01 0.26777607444E+01 0.30312556536E+01 0.37402489931E+01
 0.48916441530E+01 0.79880566746E+01 0.14521461228E+02 0.23328839503E+02 0.31053545733E+02
 0.34136213650E+02 0.31060756281E+02 0.23340136233E+02 0.61448169093E+01 0.44708429852E+01
 0.36057001432E+01 0.30105730724E+01 0.26811766534E+01 0.25426739994E+01 0.25411125681E+01
 0.26786407769E+01 0.30102697848E+01 0.36077676570E+01 0.44728547495E+01 0.61436623623E+01
 0.93637317933E+01 0.13269708090E+02 0.15972760327E+02 0.15977124581E+02 0.13278630559E+02
 0.93700599642E+01 0.39958909140E+01 0.34006283029E+01 0.29712086524E+01 0.27115400220E+01
 0.25796786927E+01 0.25411125681E+01 0.25827257245E+01 0.27133757679E+01 0.29693114557E+01
 0.33969786246E+01 0.39936420031E+01 0.47182225116E+01 0.57802150128E+01 0.68961000993E+01
 0.73812327788E+01 0.68946707528E+01 0.57785961849E+01 0.47180489431E+01 0.31793184637E+01
 0.29449977581E+01 0.27947945090E+01 0.27118881453E+01 0.26777607444E+01 0.26786407769E+01
 0.27133757679E+01 0.27946710824E+01 0.29426712489E+01 0.31768715729E+01 0.34972924536E+01
 0.38590846257E+01 0.41759919579E+01 0.43712781509E+01 0.43707944272E+01 0.41745528586E+01
 0.38575994641E+01 0.34976140658E+01 0.29464770600E+01 0.29416523136E+01 0.29709971862E+01
 0.30124753447E+01 0.30312556536E+01 0.30102697848E+01 0.29693114557E+01 0.29426712489E+01
 0.29488952539E+01 0.29924019466E+01 0.30764204044E+01 0.31914984957E+01 0.32977705959E+01
 0.33415559356E+01 0.32982426485E+01 0.31931930012E+01 0.30780738479E+01 0.29917260350E+01
 0.31767844964E+01 0.33973311840E+01 0.36086768177E+01 0.37407632956E+01 0.37402489931E+01
 0.36077676570E+01 0.33969786246E+01 0.31768715729E+01 0.29924019466E+01 0.28582423580E+01
 0.27767648177E+01 0.27431811035E+01 0.27375972094E+01 0.27372067538E+01 0.27426858958E+01
 0.27770649755E+01 0.28590076379E+01 0.29927175389E+01 0.39960046640E+01 0.44734049785E+01
 0.48911841707E+01 0.50726973173E+01 0.48916441530E+01 0.44728547495E+01 0.39936420031E+01
 0.34972924536E+01 0.30764204044E+01 0.27767648177E+01 0.25901465627E+01 0.24911989937E+01
 0.24604455868E+01 0.24905678467E+01 0.25886746245E+01 0.27755892871E+01 0.30772995148E+01
 0.35000225663E+01 0.61448202989E+01 0.79900847792E+01 0.93181814074E+01 0.93171866281E+01
 0.79880566746E+01 0.61436623623E+01 0.47182225116E+01 0.38590846257E+01 0.31914984957E+01
 0.27431811035E+01 0.24911989937E+01 0.23807134409E+01 0.23807213466E+01 0.24914010195E+01
 0.27434346232E+01 0.31910397674E+01 0.38579007014E+01 0.47176813266E+01 0.14521399118E+02
 0.19176531750E+02 0.21048231297E+02 0.19174879644E+02 0.14521461228E+02 0.93637317933E+01
 0.57802150128E+01 0.41759919579E+01 0.32977705959E+01 0.27375972094E+01 0.24604455868E+01
 0.23807213466E+01 0.24608757132E+01 0.27380027894E+01 0.32981239572E+01 0.41757106227E+01
 0.57782440088E+01 0.93613340048E+01 0.33938032113E+02 0.40768202411E+02 0.40772160274E+02
 0.33943957070E+02 0.23328839503E+02 0.13269708090E+02 0.68961000993E+01 0.43712781509E+01
 0.33415559356E+01 0.27372067538E+01 0.24905678467E+01 0.24914010195E+01 0.27380027894E+01
 0.33400360541E+01 0.43692606819E+01 0.68978917297E+01 0.13274264863E+02 0.23329102828E+02
 0.64274680609E+02 0.70106843276E+02 0.64276149428E+02 0.49251677815E+02 0.31053545733E+02
 0.15972760327E+02 0.73812327788E+01 0.43707944272E+01 0.32982426485E+01 0.27426858958E+01
 0.25886746245E+01 0.27434346232E+01 0.32981239572E+01 0.43692606819E+01 0.73809026274E+01
 0.15976230076E+02 0.31058383319E+02 0.49253141479E+02 0.99140008307E+02 0.99127767855E+02
 0.83697267886E+02 0.59067583222E+02 0.34136213650E+02 0.15977124581E+02 0.68946707528E+01
 0.41745528586E+01 0.31931930012E+01 0.27770649755E+01 0.27755892871E+01 0.31910397674E+01
 0.41757106227E+01 0.68978917297E+01 0.15976230076E+02 0.34133642830E+02 0.59076665329E+02
 0.83718881095E+02 0.12747330479E+03 0.11736784873E+03 0.91251725274E+02 0.59061596499E+02
 0.31060756281E+02 0.13278630559E+02 0.57785961849E+01 0.38575994641E+01 0.30780738479E+01
 0.28590076379E+01 0.30772995148E+01 0.38579007014E+01 0.57782440088E+01 0.13274264863E+02
 0.31058383319E+02 0.59076665329E+02 0.91287638633E+02 0.11740069378E+03 0.13841677263E+03
 0.11734706060E+03 0.83678456519E+02 0.49245262943E+02 0.23340136233E+02 0.93700599642E+01
 0.47180489431E+01 0.34976140658E+01 0.29917260350E+01 0.29927175389E+01 0.35000225663E+01
 0.47176813266E+01 0.93613340048E+01 0.23329102828E+02 0.49253141479E+02 0.83718881095E+02
 0.11740069378E+03 0.13844195183E+03 0.83566743969E+02 0.58805461767E+02 0.33914205337E+02
 0.15905177351E+02 0.69330923796E+01 0.42417816678E+01 0.32627281995E+01 0.28493469178E+01
 0.28503131851E+01 0.32616967898E+01 0.42372411861E+01 0.69349497110E+01 0.15920426146E+02
 0.33932123632E+02 0.58809764148E+02 0.83557724880E+02 0.99142619864E+02 0.99148871698E+02
 0.58805461767E+02 0.37173214167E+02 0.19155296136E+02 0.86108651828E+01 0.47344450933E+01
 0.35357847535E+01 0.29245821712E+01 0.27590081689E+01 0.29299457387E+01 0.35329818640E+01
 0.47245371262E+01 0.86122997532E+01 0.19175482574E+02 0.37197819364E+02 0.58819312198E+02
 0.76742688323E+02 0.83731453405E+02 0.76739423302E+02 0.33914205337E+02 0.19155296136E+02
 0.93172481053E+01 0.50805184377E+01 0.37440225162E+01 0.30110367637E+01 0.27112552882E+01
 0.27131816708E+01 0.30129510976E+01 0.37399857283E+01 0.50731494903E+01 0.93186324388E+01
 0.19173232509E+02 0.33941407599E+02 0.49262056486E+02 0.59097561293E+02 0.59089701181E+02
 0.49240201943E+02 0.15905177351E+02 0.86108651828E+01 0.50805184377E+01 0.38203228810E+01
 0.30682129978E+01 0.26964872141E+01 0.25940951954E+01 0.26964009008E+01 0.30679220427E+01
 0.38181376626E+01 0.50761819619E+01 0.86104280640E+01 0.15917192946E+02 0.25656042445E+02
 0.34154619041E+02 0.37530303849E+02 0.34134917010E+02 0.25632645699E+02 0.69330923796E+01
 0.47344450933E+01 0.37440225162E+01 0.30682129978E+01 0.26934490840E+01 0.25423495047E+01
 0.25421578123E+01 0.26930007827E+01 0.30669786959E+01 0.37408482457E+01 0.47307117554E+01
 0.69340621727E+01 0.11077270549E+02 0.15980051487E+02 0.19329330684E+02 0.19323060470E+02
 0.15966916160E+02 0.11067898882E+02 0.42417816678E+01 0.35357847535E+01 0.30110367637E+01
 0.26964872141E+01 0.25423495047E+01 0.24965812272E+01 0.25416570589E+01 0.26960578869E+01
 0.30101359664E+01 0.35336947377E+01 0.42406754972E+01 0.52542012454E+01 0.68953929550E+01
 0.85732008653E+01 0.92894379684E+01 0.85709661005E+01 0.68919112264E+01 0.52522364089E+01
 0.32627281995E+01 0.29245821712E+01 0.27112552882E+01 0.25940951954E+01 0.25421578123E+01
 0.25416570589E+01 0.25940250741E+01 0.27131995716E+01 0.29267101315E+01 0.32618463490E+01
 0.37055317856E+01 0.41761857770E+01 0.46162065555E+01 0.49358033778E+01 0.49344906073E+01
 0.46147600976E+01 0.41778749916E+01 0.37088508471E+01 0.28493469178E+01 0.27590081689E+01
 0.27131816708E+01 0.26964009008E+01 0.26930007827E+01 0.26960578869E+01 0.27131995716E+01
 0.27596387152E+01 0.28499997444E+01 0.29952621273E+01 0.31916933673E+01 0.34044987793E+01
 0.35719220033E+01 0.36355385194E+01 0.35719363568E+01 0.34046702017E+01 0.31919221691E+01
 0.29951272842E+01 0.28503131851E+01 0.29299457387E+01 0.30129510976E+01 0.30679220427E+01
 0.30669786959E+01 0.30101359664E+01 0.29267101315E+01 0.28499997444E+01 0.27978217387E+01
 0.27768054371E+01 0.27896414875E+01 0.28269626053E+01 0.28609609641E+01 0.28627400427E+01
 0.28295464492E+01 0.27885243204E+01 0.27719303718E+01 0.27938182238E+01 0.32616967898E+01
 0.35329818640E+01 0.37399857283E+01 0.38181376626E+01 0.37408482457E+01 0.35336947377E+01
 0.32618463490E+01 0.29952621273E+01 0.27768054371E+01 0.26194523969E+01 0.25217040257E+01
 0.24740173000E+01 0.24608066888E+01 0.24737238268E+01 0.25213413978E+01 0.26190892584E+01
 0.27765090559E+01 0.29951845444E+01 0.42372411861E+01 0.47245371262E+01 0.50731494903E+01
 0.50761819619E+01 0.47307117554E+01 0.42406754972E+01 0.37055317856E+01 0.31916933673E+01
 0.27896414875E+01 0.25217040257E+01 0.23661500712E+01 0.22956435569E+01 0.22948929599E+01
 0.23642749359E+01 0.25205831839E+01 0.27917356661E+01 0.31961385868E+01 0.37075943695E+01
 0.69349497110E+01 0.86122997532E+01 0.93186324388E+01 0.86104280640E+01 0.69340621727E+01
 0.52542012454E+01 0.41761857770E+01 0.34044987793E+01 0.28269626053E+01 0.24740173000E+01
 0.22956435569E+01 0.22415843352E+01 0.22954838316E+01 0.24747967248E+01 0.28279797946E+01
 0.34035617730E+01 0.41733254698E+01 0.52523093141E+01 0.15920426146E+02 0.19175482574E+02
 0.19173232509E+02 0.15917192946E+02 0.11077270549E+02 0.68953929550E+01 0.46162065555E+01
 0.35719220033E+01 0.28609609641E+01 0.24608066888E+01 0.22948929599E+01 0.22954838316E+01
 0.24622210380E+01 0.28621766915E+01 0.35712874345E+01 0.46126533826E+01 0.68910168771E+01
 0.11076403961E+02 0.33932123632E+02 0.37197819364E+02 0.33941407599E+02 0.25656042445E+02
 0.15980051487E+02 0.85732008653E+01 0.49358033778E+01 0.36355385194E+01 0.28627400427E+01
 0.24737238268E+01 0.23642749359E+01 0.24747967248E+01 0.28621766915E+01 0.36336799678E+01
 0.49365223253E+01 0.85765622872E+01 0.15979562261E+02 0.25647764703E+02 0.58809764148E+02
 0.58819312198E+02 0.49262056486E+02 0.34154619041E+02 0.19329330684E+02 0.92894379684E+01
 0.49344906073E+01 0.35719363568E+01 0.28295464492E+01 0.25213413978E+01 0.25205831839E+01
 0.28279797946E+01 0.35712874345E+01 0.49365223253E+01 0.92932627807E+01 0.19328541264E+02
 0.34142359145E+02 0.49242990573E+02 0.83557724880E+02 0.76742688323E+02 0.59097561293E+02
 0.37530303849E+02 0.19323060470E+02 0.85709661005E+01 0.46147600976E+01 0.34046702017E+01
 0.27885243204E+01 0.26190892584E+01 0.27917356661E+01 0.34035617730E+01 0.46126533826E+01
 0.85765622872E+01 0.19328541264E+02 0.37517877281E+02 0.59067247087E+02 0.76716809285E+02
 0.99142619864E+02 0.83731453405E+02 0.59089701181E+02 0.34134917010E+02 0.15966916160E+02
 0.68919112264E+01 0.41778749916E+01 0.31919221691E+01 0.27719303718E+01 0.27765090559E+01
 0.31961385868E+01 0.41733254698E+01 0.68910168771E+01 0.15979562261E+02 0.34142359145E+02
 0.59067247087E+02 0.83689248002E+02 0.99120957493E+02 0.99148871698E+02 0.76739423302E+02
 0.49240201943E+02 0.25632645699E+02 0.11067898882E+02 0.52522364089E+01 0.37088508471E+01
 0.29951272842E+01 0.27938182238E+01 0.29951845444E+01 0.37075943695E+01 0.52523093141E+01
 0.11076403961E+02 0.25647764703E+02 0.49242990573E+02 0.76716809285E+02 0.99120957493E+02
 0.10780518178E+03 0.44898896091E+02 0.28186493853E+02 0.14535076232E+02 0.69284486898E+01
 0.43243153180E+01 0.33233623234E+01 0.28076413502E+01 0.26623651915E+01 0.28060041164E+01
 0.33275350334E+01 0.43348464855E+01 0.69336173742E+01 0.14522521669E+02 0.28155726228E+02
 0.44862339314E+02 0.58799106980E+02 0.64245778512E+02 0.58823750453E+02 0.28186493853E+02
 0.15940287735E+02 0.79798687899E+01 0.47145776084E+01 0.35839308697E+01 0.29322478767E+01
 0.26615466835E+01 0.26617368568E+01 0.29330926989E+01 0.35887925088E+01 0.47259480849E+01
 0.79875285739E+01 0.15926874200E+02 0.28150485487E+02 0.40970548697E+02 0.49236125703E+02
 0.49252021524E+02 0.41008543051E+02 0.14535076232E+02 0.79798687899E+01 0.48734472550E+01
 0.37286616276E+01 0.30317941162E+01 0.26818194601E+01 0.25785469511E+01 0.26771661994E+01
 0.30318489923E+01 0.37396673280E+01 0.48902742689E+01 0.79882211278E+01 0.14521003295E+02
 0.23324455970E+02 0.31050503551E+02 0.34144896379E+02 0.31081507380E+02 0.23359226338E+02
 0.69284486898E+01 0.47145776084E+01 0.37286616276E+01 0.30648599895E+01 0.26955786074E+01
 0.25422592951E+01 0.25399237237E+01 0.26926394064E+01 0.30679747583E+01 0.37396138230E+01
 0.47286872119E+01 0.69347579370E+01 0.11076578325E+02 0.15972922701E+02 0.19325334185E+02
 0.19338070542E+02 0.15997021465E+02 0.11088507291E+02 0.43243153180E+01 0.35839308697E+01
 0.30317941162E+01 0.26955786074E+01 0.25286409074E+01 0.24806199068E+01 0.25299444694E+01
 0.26933684841E+01 0.30284501611E+01 0.35886199983E+01 0.43373062454E+01 0.54925897299E+01
 0.73791119062E+01 0.92914234878E+01 0.10109860960E+02 0.93016009244E+01 0.73845012294E+01
 0.54843187161E+01 0.33233623234E+01 0.29322478767E+01 0.26818194601E+01 0.25422592951E+01
 0.24806199068E+01 0.24812973462E+01 0.25422168360E+01 0.26790415530E+01 0.29302664949E+01
 0.33274853196E+01 0.38394692381E+01 0.43705276943E+01 0.49366973336E+01 0.53692480392E+01
 0.53718237093E+01 0.49392762692E+01 0.43662580858E+01 0.38311499949E+01 0.28076413502E+01
 0.26615466835E+01 0.25785469511E+01 0.25399237237E+01 0.25299444694E+01 0.25422168360E+01
 0.25820365079E+01 0.26638119699E+01 0.28068593698E+01 0.30239889147E+01 0.32983687104E+01
 0.35723061767E+01 0.37715304291E+01 0.38427878447E+01 0.37695851100E+01 0.35709855145E+01
 0.32996467621E+01 0.30265919964E+01 0.26623651915E+01 0.26617368568E+01 0.26771661994E+01
 0.26926394064E+01 0.26933684841E+01 0.26790415530E+01 0.26638119699E+01 0.26632652553E+01
 0.26875947446E+01 0.27432241224E+01 0.28273990460E+01 0.29176524077E+01 0.29766145136E+01
 0.29758770264E+01 0.29167832501E+01 0.28282582573E+01 0.27452667927E+01 0.26886753065E+01
 0.28060041164E+01 0.29330926989E+01 0.30318489923E+01 0.30679747583E+01 0.30284501611E+01
 0.29302664949E+01 0.28068593698E+01 0.26875947446E+01 0.25896292674E+01 0.25218899127E+01
 0.24868116455E+01 0.24765886041E+01 0.24763516187E+01 0.24779287152E+01 0.24882985985E+01
 0.25216718330E+01 0.25868736434E+01 0.26841196514E+01 0.33275350334E+01 0.35887925088E+01
 0.37396673280E+01 0.37396138230E+01 0.35886199983E+01 0.33274853196E+01 0.30239889147E+01
 0.27432241224E+01 0.25218899127E+01 0.23674918548E+01 0.22733468614E+01 0.22297732931E+01
 0.22298657096E+01 0.22737232661E+01 0.23679570013E+01 0.25218326690E+01 0.27426212474E+01
 0.30235551499E+01 0.43348464855E+01 0.47259480849E+01 0.48902742689E+01 0.47286872119E+01
 0.43373062454E+01 0.38394692381E+01 0.32983687104E+01 0.28273990460E+01 0.24868116455E+01
 0.22733468614E+01 0.21591217497E+01 0.21233591158E+01 0.21589944317E+01 0.22726177001E+01
 0.24866602587E+01 0.28294209508E+01 0.33012718257E+01 0.38400669134E+01 0.69336173742E+01
 0.79875285739E+01 0.79882211278E+01 0.69347579370E+01 0.54925897299E+01 0.43705276943E+01
 0.35723061767E+01 0.29176524077E+01 0.24765886041E+01 0.22297732931E+01 0.21233591158E+01
 0.21236435150E+01 0.22301801145E+01 0.24764883415E+01 0.29172855228E+01 0.35724242989E+01
 0.43709920514E+01 0.54923437559E+01 0.14522521669E+02 0.15926874200E+02 0.14521003295E+02
 0.11076578325E+02 0.73791119062E+01 0.49366973336E+01 0.37715304291E+01 0.29766145136E+01
 0.24763516187E+01 0.22298657096E+01 0.21589944317E+01 0.22301801145E+01 0.24767630863E+01
 0.29766192079E+01 0.37708445130E+01 0.49359402127E+01 0.73794009134E+01 0.11078122557E+02
 0.28155726228E+02 0.28150485487E+02 0.23324455970E+02 0.15972922701E+02 0.92914234878E+01
 0.53692480392E+01 0.38427878447E+01 0.29758770264E+01 0.24779287152E+01 0.22737232661E+01
 0.22726177001E+01 0.24764883415E+01 0.29766192079E+01 0.38443646038E+01 0.53685855317E+01
 0.92904186227E+01 0.15977429566E+02 0.23334046164E+02 0.44862339314E+02 0.40970548697E+02
 0.31050503551E+02 0.19325334185E+02 0.10109860960E+02 0.53718237093E+01 0.37695851100E+01
 0.29167832501E+01 0.24882985985E+01 0.23679570013E+01 0.24866602587E+01 0.29172855228E+01
 0.37708445130E+01 0.53685855317E+01 0.10104523277E+02 0.19328283642E+02 0.31065134058E+02
 0.40985138096E+02 0.58799106980E+02 0.49236125703E+02 0.34144896379E+02 0.19338070542E+02
 0.93016009244E+01 0.49392762692E+01 0.35709855145E+01 0.28282582573E+01 0.25216718330E+01
 0.25218326690E+01 0.28294209508E+01 0.35724242989E+01 0.49359402127E+01 0.92904186227E+01
 0.19328283642E+02 0.34151458200E+02 0.49256799820E+02 0.58810841695E+02 0.64245778512E+02
 0.49252021524E+02 0.31081507380E+02 0.15997021465E+02 0.73845012294E+01 0.43662580858E+01
 0.32996467621E+01 0.27452667927E+01 0.25868736434E+01 0.27426212474E+01 0.33012718257E+01
 0.43709920514E+01 0.73794009134E+01 0.15977429566E+02 0.31065134058E+02 0.49256799820E+02
 0.64260777782E+02 0.70073374430E+02 0.58823750453E+02 0.41008543051E+02 0.23359226338E+02
 0.11088507291E+02 0.54843187161E+01 0.38311499949E+01 0.30265919964E+01 0.26886753065E+01
 0.26841196514E+01 0.30235551499E+01 0.38400669134E+01 0.54923437559E+01 0.11078122557E+02
 0.23334046164E+02 0.40985138096E+02 0.58810841695E+02 0.70073374430E+02 0.70077046744E+02
 0.19267986415E+02 0.11110164491E+02 0.61635585233E+01 0.42579117253E+01 0.33316259807E+01
 0.27950711618E+01 0.25796154207E+01 0.25805095537E+01 0.27965816169E+01 0.33275324868E+01
 0.42418136900E+01 0.61445463036E+01 0.11110798838E+02 0.19297595667E+02 0.28164067712E+02