   1   1   1   0
  0.1185948E+02  0.2559727E-09  0.2559727E-09  0.2559727E-09  0.5000000E-15
  1.000000000000000E-004
  CAR 
 unknown system                          
     20.00000000    -10.00000000  901      3.75111203      1.00000000
    -10.000  0.0000E+00  0.0000E+00
     -9.967  0.0000E+00  0.0000E+00
     -9.933  0.0000E+00  0.0000E+00
     -9.900  0.0000E+00  0.0000E+00
     -9.867  0.0000E+00  0.0000E+00
     -9.833  0.0000E+00  0.0000E+00
     -9.800  0.0000E+00  0.0000E+00
     -9.767  0.0000E+00  0.0000E+00
     -9.733  0.0000E+00  0.0000E+00
     -9.700  0.0000E+00  0.0000E+00
     -9.667  0.0000E+00  0.0000E+00
     -9.633  0.0000E+00  0.0000E+00
     -9.600  0.0000E+00  0.0000E+00
     -9.567  0.0000E+00  0.0000E+00
     -9.533  0.0000E+00  0.0000E+00
     -9.500  0.0000E+00  0.0000E+00
     -9.467  0.0000E+00  0.0000E+00
     -9.433  0.0000E+00  0.0000E+00
     -9.400  0.0000E+00  0.0000E+00
     -9.367  0.0000E+00  0.0000E+00
     -9.333  0.0000E+00  0.0000E+00
     -9.300  0.0000E+00  0.0000E+00
     -9.267  0.0000E+00  0.0000E+00
     -9.233  0.0000E+00  0.0000E+00
     -9.200  0.0000E+00  0.0000E+00
     -9.167  0.0000E+00  0.0000E+00
     -9.133  0.0000E+00  0.0000E+00
     -9.100  0.0000E+00  0.0000E+00
     -9.067  0.0000E+00  0.0000E+00
     -9.033  0.0000E+00  0.0000E+00
     -9.000  0.0000E+00  0.0000E+00
     -8.967  0.0000E+00  0.0000E+00
     -8.933  0.0000E+00  0.0000E+00
     -8.900  0.0000E+00  0.0000E+00
     -8.867  0.0000E+00  0.0000E+00
     -8.833  0.0000E+00  0.0000E+00
     -8.800  0.0000E+00  0.0000E+00
     -8.767  0.0000E+00  0.0000E+00
     -8.733  0.0000E+00  0.0000E+00
     -8.700  0.0000E+00  0.0000E+00
     -8.667  0.0000E+00  0.0000E+00
     -8.633  0.0000E+00  0.0000E+00
     -8.600  0.0000E+00  0.0000E+00
     -8.567  0.0000E+00  0.0000E+00
     -8.533  0.0000E+00  0.0000E+00
     -8.500  0.0000E+00  0.0000E+00
     -8.467  0.0000E+00  0.0000E+00
     -8.433  0.0000E+00  0.0000E+00
     -8.400  0.0000E+00  0.0000E+00
     -8.367  0.0000E+00  0.0000E+00
     -8.333  0.0000E+00  0.0000E+00
     -8.300  0.0000E+00  0.0000E+00
     -8.267  0.0000E+00  0.0000E+00
     -8.233  0.0000E+00  0.0000E+00
     -8.200  0.0000E+00  0.0000E+00
     -8.167  0.0000E+00  0.0000E+00
     -8.133  0.0000E+00  0.0000E+00
     -8.100  0.0000E+00  0.0000E+00
     -8.067  0.0000E+00  0.0000E+00
     -8.033  0.0000E+00  0.0000E+00
     -8.000  0.0000E+00  0.0000E+00
     -7.967  0.0000E+00  0.0000E+00
     -7.933  0.0000E+00  0.0000E+00
     -7.900  0.0000E+00  0.0000E+00
     -7.867  0.0000E+00  0.0000E+00
     -7.833  0.0000E+00  0.0000E+00
     -7.800  0.0000E+00  0.0000E+00
     -7.767  0.0000E+00  0.0000E+00
     -7.733  0.0000E+00  0.0000E+00
     -7.700  0.0000E+00  0.0000E+00
     -7.667  0.0000E+00  0.0000E+00
     -7.633  0.0000E+00  0.0000E+00
     -7.600  0.0000E+00  0.0000E+00
     -7.567  0.0000E+00  0.0000E+00
     -7.533  0.0000E+00  0.0000E+00
     -7.500  0.0000E+00  0.0000E+00
     -7.467  0.0000E+00  0.0000E+00
     -7.433  0.0000E+00  0.0000E+00
     -7.400  0.0000E+00  0.0000E+00
     -7.367  0.0000E+00  0.0000E+00
     -7.333  0.0000E+00  0.0000E+00
     -7.300  0.0000E+00  0.0000E+00
     -7.267  0.0000E+00  0.0000E+00
     -7.233  0.0000E+00  0.0000E+00
     -7.200  0.0000E+00  0.0000E+00
     -7.167  0.0000E+00  0.0000E+00
     -7.133  0.0000E+00  0.0000E+00
     -7.100  0.0000E+00  0.0000E+00
     -7.067  0.0000E+00  0.0000E+00
     -7.033  0.0000E+00  0.0000E+00
     -7.000  0.0000E+00  0.0000E+00
     -6.967  0.0000E+00  0.0000E+00
     -6.933  0.0000E+00  0.0000E+00
     -6.900  0.0000E+00  0.0000E+00
     -6.867  0.0000E+00  0.0000E+00
     -6.833  0.0000E+00  0.0000E+00
     -6.800  0.0000E+00  0.0000E+00
     -6.767  0.0000E+00  0.0000E+00
     -6.733  0.0000E+00  0.0000E+00
     -6.700  0.0000E+00  0.0000E+00
     -6.667  0.0000E+00  0.0000E+00
     -6.633  0.0000E+00  0.0000E+00
     -6.600  0.0000E+00  0.0000E+00
     -6.567  0.0000E+00  0.0000E+00
     -6.533  0.0000E+00  0.0000E+00
     -6.500  0.0000E+00  0.0000E+00
     -6.467  0.0000E+00  0.0000E+00
     -6.433  0.0000E+00  0.0000E+00
     -6.400  0.0000E+00  0.0000E+00
     -6.367  0.0000E+00  0.0000E+00
     -6.333  0.0000E+00  0.0000E+00
     -6.300  0.0000E+00  0.0000E+00
     -6.267  0.0000E+00  0.0000E+00
     -6.233  0.0000E+00  0.0000E+00
     -6.200  0.0000E+00  0.0000E+00
     -6.167  0.0000E+00  0.0000E+00
     -6.133  0.0000E+00  0.0000E+00
     -6.100  0.0000E+00  0.0000E+00
     -6.067  0.0000E+00  0.0000E+00
     -6.033  0.0000E+00  0.0000E+00
     -6.000  0.0000E+00  0.0000E+00
     -5.967  0.0000E+00  0.0000E+00
     -5.933  0.0000E+00  0.0000E+00
     -5.900  0.0000E+00  0.0000E+00
     -5.867  0.0000E+00  0.0000E+00
     -5.833  0.0000E+00  0.0000E+00
     -5.800  0.0000E+00  0.0000E+00
     -5.767  0.0000E+00  0.0000E+00
     -5.733  0.0000E+00  0.0000E+00
     -5.700  0.0000E+00  0.0000E+00
     -5.667  0.0000E+00  0.0000E+00
     -5.633  0.0000E+00  0.0000E+00
     -5.600  0.0000E+00  0.0000E+00
     -5.567  0.0000E+00  0.0000E+00
     -5.533  0.7690E-02  0.3494E-04
     -5.500  0.1587E-01  0.4222E-03
     -5.467  0.2025E-01  0.1017E-02
     -5.433  0.2462E-01  0.1776E-02
     -5.400  0.2800E-01  0.2650E-02
     -5.367  0.3166E-01  0.3650E-02
     -5.333  0.3412E-01  0.4743E-02
     -5.300  0.3704E-01  0.5928E-02
     -5.267  0.3970E-01  0.7211E-02
     -5.233  0.4181E-01  0.8568E-02
     -5.200  0.4421E-01  0.1000E-01
     -5.167  0.4676E-01  0.1152E-01
     -5.133  0.4859E-01  0.1311E-01
     -5.100  0.5052E-01  0.1476E-01
     -5.067  0.5265E-01  0.1648E-01
     -5.033  0.5484E-01  0.1827E-01
     -5.000  0.5647E-01  0.2012E-01
     -4.967  0.5824E-01  0.2204E-01
     -4.933  0.6005E-01  0.2401E-01
     -4.900  0.6198E-01  0.2604E-01
     -4.867  0.6375E-01  0.2814E-01
     -4.833  0.6532E-01  0.3029E-01
     -4.800  0.6694E-01  0.3249E-01
     -4.767  0.6862E-01  0.3475E-01
     -4.733  0.7037E-01  0.3707E-01
     -4.700  0.7209E-01  0.3944E-01
     -4.667  0.7354E-01  0.4187E-01
     -4.633  0.7506E-01  0.4435E-01
     -4.600  0.7662E-01  0.4687E-01
     -4.567  0.7824E-01  0.4946E-01
     -4.533  0.7988E-01  0.5209E-01
     -4.500  0.8142E-01  0.5478E-01
     -4.467  0.8286E-01  0.5752E-01
     -4.433  0.8432E-01  0.6030E-01
     -4.400  0.8582E-01  0.6314E-01
     -4.367  0.8736E-01  0.6603E-01
     -4.333  0.8894E-01  0.6897E-01
     -4.300  0.9048E-01  0.7196E-01
     -4.267  0.9188E-01  0.7500E-01
     -4.233  0.9331E-01  0.7808E-01
     -4.200  0.9478E-01  0.8122E-01
     -4.167  0.9627E-01  0.8440E-01
     -4.133  0.9779E-01  0.8763E-01
     -4.100  0.9935E-01  0.9092E-01
     -4.067  0.1008E+00  0.9426E-01
     -4.033  0.1023E+00  0.9764E-01
     -4.000  0.1037E+00  0.1011E+00
     -3.967  0.1052E+00  0.1046E+00
     -3.933  0.1067E+00  0.1081E+00
     -3.900  0.1082E+00  0.1117E+00
     -3.867  0.1098E+00  0.1153E+00
     -3.833  0.1114E+00  0.1190E+00
     -3.800  0.1128E+00  0.1227E+00
     -3.767  0.1143E+00  0.1265E+00
     -3.733  0.1159E+00  0.1304E+00
     -3.700  0.1174E+00  0.1342E+00
     -3.667  0.1190E+00  0.1382E+00
     -3.633  0.1206E+00  0.1422E+00
     -3.600  0.1222E+00  0.1462E+00
     -3.567  0.1238E+00  0.1503E+00
     -3.533  0.1254E+00  0.1545E+00
     -3.500  0.1271E+00  0.1587E+00
     -3.467  0.1287E+00  0.1629E+00
     -3.433  0.1304E+00  0.1673E+00
     -3.400  0.1321E+00  0.1716E+00
     -3.367  0.1338E+00  0.1761E+00
     -3.333  0.1356E+00  0.1806E+00
     -3.300  0.1373E+00  0.1851E+00
     -3.267  0.1391E+00  0.1897E+00
     -3.233  0.1409E+00  0.1944E+00
     -3.200  0.1428E+00  0.1991E+00
     -3.167  0.1447E+00  0.2039E+00
     -3.133  0.1466E+00  0.2088E+00
     -3.100  0.1485E+00  0.2137E+00
     -3.067  0.1505E+00  0.2187E+00
     -3.033  0.1525E+00  0.2237E+00
     -3.000  0.1546E+00  0.2288E+00
     -2.967  0.1567E+00  0.2340E+00
     -2.933  0.1589E+00  0.2393E+00
     -2.900  0.1611E+00  0.2446E+00
     -2.867  0.1633E+00  0.2500E+00
     -2.833  0.1656E+00  0.2555E+00
     -2.800  0.1680E+00  0.2611E+00
     -2.767  0.1703E+00  0.2667E+00
     -2.733  0.1729E+00  0.2724E+00
     -2.700  0.1754E+00  0.2782E+00
     -2.667  0.1781E+00  0.2841E+00
     -2.633  0.1808E+00  0.2901E+00
     -2.600  0.1836E+00  0.2962E+00
     -2.567  0.1864E+00  0.3023E+00
     -2.533  0.1894E+00  0.3086E+00
     -2.500  0.1924E+00  0.3150E+00
     -2.467  0.1956E+00  0.3214E+00
     -2.433  0.1989E+00  0.3280E+00
     -2.400  0.2024E+00  0.3347E+00
     -2.367  0.2060E+00  0.3415E+00
     -2.333  0.2097E+00  0.3484E+00
     -2.300  0.2136E+00  0.3555E+00
     -2.267  0.2176E+00  0.3627E+00
     -2.233  0.2217E+00  0.3700E+00
     -2.200  0.2260E+00  0.3775E+00
     -2.167  0.2307E+00  0.3851E+00
     -2.133  0.2357E+00  0.3928E+00
     -2.100  0.2409E+00  0.4008E+00
     -2.067  0.2464E+00  0.4089E+00
     -2.033  0.2521E+00  0.4172E+00
     -2.000  0.2581E+00  0.4257E+00
     -1.967  0.2644E+00  0.4344E+00
     -1.933  0.2711E+00  0.4433E+00
     -1.900  0.2783E+00  0.4525E+00
     -1.867  0.2863E+00  0.4619E+00
     -1.833  0.2950E+00  0.4716E+00
     -1.800  0.3042E+00  0.4816E+00
     -1.767  0.3141E+00  0.4919E+00
     -1.733  0.3248E+00  0.5025E+00
     -1.700  0.3363E+00  0.5135E+00
     -1.667  0.3488E+00  0.5250E+00
     -1.633  0.3626E+00  0.5368E+00
     -1.600  0.3789E+00  0.5492E+00
     -1.567  0.3975E+00  0.5621E+00
     -1.533  0.4186E+00  0.5757E+00
     -1.500  0.4427E+00  0.5900E+00
     -1.467  0.4701E+00  0.6052E+00
     -1.433  0.5011E+00  0.6214E+00
     -1.400  0.5470E+00  0.6388E+00
     -1.367  0.6128E+00  0.6581E+00
     -1.333  0.7210E+00  0.6806E+00
     -1.300  0.7397E+00  0.7049E+00
     -1.267  0.7573E+00  0.7298E+00
     -1.233  0.7806E+00  0.7554E+00
     -1.200  0.8188E+00  0.7821E+00
     -1.167  0.8805E+00  0.8102E+00
     -1.133  0.1173E+01  0.8441E+00
     -1.100  0.1176E+01  0.8834E+00
     -1.067  0.1189E+01  0.9228E+00
     -1.033  0.1207E+01  0.9626E+00
     -1.000  0.1213E+01  0.1003E+01
     -0.967  0.1222E+01  0.1044E+01
     -0.933  0.1241E+01  0.1085E+01
     -0.900  0.1258E+01  0.1126E+01
     -0.867  0.1274E+01  0.1168E+01
     -0.833  0.1285E+01  0.1211E+01
     -0.800  0.1305E+01  0.1254E+01
     -0.767  0.1325E+01  0.1298E+01
     -0.733  0.1340E+01  0.1342E+01
     -0.700  0.1508E+01  0.1388E+01
     -0.667  0.1702E+01  0.1442E+01
     -0.633  0.1829E+01  0.1501E+01
     -0.600  0.1935E+01  0.1564E+01
     -0.567  0.2029E+01  0.1630E+01
     -0.533  0.2116E+01  0.1699E+01
     -0.500  0.2200E+01  0.1771E+01
     -0.467  0.2287E+01  0.1846E+01
     -0.433  0.2400E+01  0.1924E+01
     -0.400  0.2540E+01  0.2007E+01
     -0.367  0.2517E+01  0.2091E+01
     -0.333  0.2483E+01  0.2175E+01
     -0.300  0.2290E+01  0.2255E+01
     -0.267  0.2153E+01  0.2329E+01
     -0.233  0.2114E+01  0.2400E+01
     -0.200  0.1865E+01  0.2466E+01
     -0.167  0.2047E+01  0.2529E+01
     -0.133  0.2256E+01  0.2604E+01
     -0.100  0.2217E+01  0.2678E+01
     -0.067  0.2199E+01  0.2752E+01
     -0.033  0.2171E+01  0.2825E+01
      0.000  0.2134E+01  0.2897E+01
      0.033  0.2074E+01  0.2967E+01
      0.067  0.2009E+01  0.3036E+01
      0.100  0.1983E+01  0.3102E+01
      0.133  0.2059E+01  0.3169E+01
      0.167  0.2484E+01  0.3243E+01
      0.200  0.2594E+01  0.3327E+01
      0.233  0.2727E+01  0.3416E+01
      0.267  0.2840E+01  0.3509E+01
      0.300  0.2932E+01  0.3605E+01
      0.333  0.3045E+01  0.3705E+01
      0.367  0.3139E+01  0.3808E+01
      0.400  0.3242E+01  0.3914E+01
      0.433  0.3195E+01  0.4023E+01
      0.467  0.3158E+01  0.4129E+01
      0.500  0.3214E+01  0.4235E+01
      0.533  0.3345E+01  0.4344E+01
      0.567  0.3552E+01  0.4459E+01
      0.600  0.4115E+01  0.4585E+01
      0.633  0.4127E+01  0.4722E+01
      0.667  0.3901E+01  0.4858E+01
      0.700  0.3976E+01  0.4989E+01
      0.733  0.4147E+01  0.5123E+01
      0.767  0.4180E+01  0.5262E+01
      0.800  0.4610E+01  0.5408E+01
      0.833  0.6693E+01  0.5585E+01
      0.867  0.4372E+01  0.5756E+01
      0.900  0.3112E+01  0.5874E+01
      0.933  0.3476E+01  0.5983E+01
      0.967  0.3127E+01  0.6098E+01
      1.000  0.2900E+01  0.6198E+01
      1.033  0.2763E+01  0.6292E+01
      1.067  0.2620E+01  0.6381E+01
      1.100  0.2570E+01  0.6468E+01
      1.133  0.2574E+01  0.6553E+01
      1.167  0.2596E+01  0.6641E+01
      1.200  0.2603E+01  0.6727E+01
      1.233  0.2794E+01  0.6817E+01
      1.267  0.3360E+01  0.6916E+01
      1.300  0.3509E+01  0.7033E+01
      1.333  0.3665E+01  0.7153E+01
      1.367  0.3719E+01  0.7275E+01
      1.400  0.3812E+01  0.7400E+01
      1.433  0.3862E+01  0.7528E+01
      1.467  0.3708E+01  0.7665E+01
      1.500  0.3781E+01  0.7789E+01
      1.533  0.3505E+01  0.7909E+01
      1.567  0.3374E+01  0.8024E+01
      1.600  0.3253E+01  0.8134E+01
      1.633  0.3212E+01  0.8242E+01
      1.667  0.3172E+01  0.8349E+01
      1.700  0.3178E+01  0.8454E+01
      1.733  0.3198E+01  0.8561E+01
      1.767  0.3270E+01  0.8668E+01
      1.800  0.3348E+01  0.8778E+01
      1.833  0.3520E+01  0.8893E+01
      1.867  0.3696E+01  0.9012E+01
      1.900  0.3902E+01  0.9139E+01
      1.933  0.4347E+01  0.9276E+01
      1.967  0.5005E+01  0.9432E+01
      2.000  0.6818E+01  0.9629E+01
      2.033  0.6856E+01  0.9859E+01
      2.067  0.5158E+01  0.1007E+02
      2.100  0.3725E+01  0.1022E+02
      2.133  0.2783E+01  0.1032E+02
      2.167  0.2317E+01  0.1041E+02
      2.200  0.4418E+00  0.1046E+02
      2.233  0.4396E+00  0.1047E+02
      2.267  0.4360E+00  0.1049E+02
      2.300  0.4298E+00  0.1050E+02
      2.333  0.4080E+00  0.1052E+02
      2.367  0.4035E+00  0.1053E+02
      2.400  0.4013E+00  0.1054E+02
      2.433  0.3985E+00  0.1056E+02
      2.467  0.3938E+00  0.1057E+02
      2.500  0.3816E+00  0.1058E+02
      2.533  0.3761E+00  0.1060E+02
      2.567  0.3733E+00  0.1061E+02
      2.600  0.3710E+00  0.1062E+02
      2.633  0.3682E+00  0.1063E+02
      2.667  0.3630E+00  0.1065E+02
      2.700  0.3565E+00  0.1066E+02
      2.733  0.3547E+00  0.1067E+02
      2.767  0.3539E+00  0.1068E+02
      2.800  0.3536E+00  0.1069E+02
      2.833  0.3535E+00  0.1071E+02
      2.867  0.3503E+00  0.1072E+02
      2.900  0.3439E+00  0.1073E+02
      2.933  0.3414E+00  0.1074E+02
      2.967  0.3395E+00  0.1075E+02
      3.000  0.3380E+00  0.1076E+02
      3.033  0.3365E+00  0.1077E+02
      3.067  0.3347E+00  0.1078E+02
      3.100  0.3326E+00  0.1080E+02
      3.133  0.3281E+00  0.1081E+02
      3.167  0.3254E+00  0.1082E+02
      3.200  0.3236E+00  0.1083E+02
      3.233  0.3220E+00  0.1084E+02
      3.267  0.3208E+00  0.1085E+02
      3.300  0.3197E+00  0.1086E+02
      3.333  0.3186E+00  0.1087E+02
      3.367  0.3172E+00  0.1088E+02
      3.400  0.3141E+00  0.1089E+02
      3.433  0.3110E+00  0.1090E+02
      3.467  0.3091E+00  0.1091E+02
      3.500  0.3076E+00  0.1092E+02
      3.533  0.3065E+00  0.1093E+02
      3.567  0.3055E+00  0.1094E+02
      3.600  0.3047E+00  0.1095E+02
      3.633  0.3038E+00  0.1096E+02
      3.667  0.3029E+00  0.1097E+02
      3.700  0.3015E+00  0.1098E+02
      3.733  0.2981E+00  0.1099E+02
      3.767  0.2960E+00  0.1100E+02
      3.800  0.2946E+00  0.1101E+02
      3.833  0.2934E+00  0.1102E+02
      3.867  0.2924E+00  0.1103E+02
      3.900  0.2915E+00  0.1104E+02
      3.933  0.2906E+00  0.1105E+02
      3.967  0.2897E+00  0.1106E+02
      4.000  0.2888E+00  0.1107E+02
      4.033  0.2880E+00  0.1108E+02
      4.067  0.2869E+00  0.1109E+02
      4.100  0.2842E+00  0.1110E+02
      4.133  0.2827E+00  0.1111E+02
      4.167  0.2814E+00  0.1112E+02
      4.200  0.2804E+00  0.1113E+02
      4.233  0.2794E+00  0.1114E+02
      4.267  0.2783E+00  0.1115E+02
      4.300  0.2774E+00  0.1116E+02
      4.333  0.2766E+00  0.1117E+02
      4.367  0.2760E+00  0.1118E+02
      4.400  0.2752E+00  0.1119E+02
      4.433  0.2745E+00  0.1119E+02
      4.467  0.2737E+00  0.1120E+02
      4.500  0.2713E+00  0.1121E+02
      4.533  0.2699E+00  0.1122E+02
      4.567  0.2686E+00  0.1123E+02
      4.600  0.2676E+00  0.1124E+02
      4.633  0.2667E+00  0.1125E+02
      4.667  0.2659E+00  0.1126E+02
      4.700  0.2652E+00  0.1127E+02
      4.733  0.2645E+00  0.1127E+02
      4.767  0.2639E+00  0.1128E+02
      4.800  0.2633E+00  0.1129E+02
      4.833  0.2627E+00  0.1130E+02
      4.867  0.2618E+00  0.1131E+02
      4.900  0.2612E+00  0.1132E+02
      4.933  0.2597E+00  0.1133E+02
      4.967  0.2587E+00  0.1134E+02
      5.000  0.2580E+00  0.1134E+02
      5.033  0.2575E+00  0.1135E+02
      5.067  0.2570E+00  0.1136E+02
      5.100  0.2567E+00  0.1137E+02
      5.133  0.2565E+00  0.1138E+02
      5.167  0.2565E+00  0.1139E+02
      5.200  0.2566E+00  0.1140E+02
      5.233  0.2574E+00  0.1140E+02
      5.267  0.2589E+00  0.1141E+02
      5.300  0.2603E+00  0.1142E+02
      5.333  0.2584E+00  0.1143E+02
      5.367  0.2593E+00  0.1144E+02
      5.400  0.2560E+00  0.1145E+02
      5.433  0.2546E+00  0.1146E+02
      5.467  0.2529E+00  0.1146E+02
      5.500  0.2504E+00  0.1147E+02
      5.533  0.2483E+00  0.1148E+02
      5.567  0.2471E+00  0.1149E+02
      5.600  0.2458E+00  0.1150E+02
      5.633  0.2450E+00  0.1151E+02
      5.667  0.2437E+00  0.1151E+02
      5.700  0.2411E+00  0.1152E+02
      5.733  0.2394E+00  0.1153E+02
      5.767  0.2378E+00  0.1154E+02
      5.800  0.2365E+00  0.1155E+02
      5.833  0.2349E+00  0.1155E+02
      5.867  0.2329E+00  0.1156E+02
      5.900  0.2308E+00  0.1157E+02
      5.933  0.2294E+00  0.1158E+02
      5.967  0.2276E+00  0.1158E+02
      6.000  0.2258E+00  0.1159E+02
      6.033  0.2241E+00  0.1160E+02
      6.067  0.2224E+00  0.1161E+02
      6.100  0.2207E+00  0.1161E+02
      6.133  0.2189E+00  0.1162E+02
      6.167  0.2164E+00  0.1163E+02
      6.200  0.2144E+00  0.1164E+02
      6.233  0.2127E+00  0.1164E+02
      6.267  0.2113E+00  0.1165E+02
      6.300  0.2101E+00  0.1166E+02
      6.333  0.2085E+00  0.1166E+02
      6.367  0.2067E+00  0.1167E+02
      6.400  0.2048E+00  0.1168E+02
      6.433  0.2026E+00  0.1169E+02
      6.467  0.2003E+00  0.1169E+02
      6.500  0.1983E+00  0.1170E+02
      6.533  0.1963E+00  0.1171E+02
      6.567  0.1941E+00  0.1171E+02
      6.600  0.1921E+00  0.1172E+02
      6.633  0.1904E+00  0.1172E+02
      6.667  0.1887E+00  0.1173E+02
      6.700  0.1871E+00  0.1174E+02
      6.733  0.1850E+00  0.1174E+02
      6.767  0.1832E+00  0.1175E+02
      6.800  0.1814E+00  0.1176E+02
      6.833  0.1795E+00  0.1176E+02
      6.867  0.1774E+00  0.1177E+02
      6.900  0.1753E+00  0.1177E+02
      6.933  0.1733E+00  0.1178E+02
      6.967  0.1713E+00  0.1178E+02
      7.000  0.1692E+00  0.1179E+02
      7.033  0.1668E+00  0.1180E+02
      7.067  0.1645E+00  0.1180E+02
      7.100  0.1626E+00  0.1181E+02
      7.133  0.1610E+00  0.1181E+02
      7.167  0.1592E+00  0.1182E+02
      7.200  0.1573E+00  0.1182E+02
      7.233  0.1552E+00  0.1183E+02
      7.267  0.1529E+00  0.1183E+02
      7.300  0.1504E+00  0.1184E+02
      7.333  0.1483E+00  0.1184E+02
      7.367  0.1460E+00  0.1185E+02
      7.400  0.1441E+00  0.1185E+02
      7.433  0.1421E+00  0.1186E+02
      7.467  0.1399E+00  0.1186E+02
      7.500  0.1817E+00  0.1187E+02
      7.533  0.2134E+00  0.1187E+02
      7.567  0.2391E+00  0.1188E+02
      7.600  0.2459E+00  0.1189E+02
      7.633  0.2596E+00  0.1190E+02
      7.667  0.2627E+00  0.1191E+02
      7.700  0.2760E+00  0.1192E+02
      7.733  0.2775E+00  0.1193E+02
      7.767  0.2727E+00  0.1194E+02
      7.800  0.2845E+00  0.1194E+02
      7.833  0.2856E+00  0.1195E+02
      7.867  0.2852E+00  0.1196E+02
      7.900  0.2820E+00  0.1197E+02
      7.933  0.2869E+00  0.1198E+02
      7.967  0.2936E+00  0.1199E+02
      8.000  0.2896E+00  0.1200E+02
      8.033  0.2867E+00  0.1201E+02
      8.067  0.2871E+00  0.1202E+02
      8.100  0.2885E+00  0.1203E+02
      8.133  0.2921E+00  0.1204E+02
      8.167  0.2936E+00  0.1205E+02
      8.200  0.2929E+00  0.1206E+02
      8.233  0.2907E+00  0.1207E+02
      8.267  0.2873E+00  0.1208E+02
      8.300  0.2877E+00  0.1209E+02
      8.333  0.2895E+00  0.1210E+02
      8.367  0.2908E+00  0.1211E+02
      8.400  0.2854E+00  0.1212E+02
      8.433  0.2827E+00  0.1213E+02
      8.467  0.2756E+00  0.1214E+02
      8.500  0.2742E+00  0.1215E+02
      8.533  0.2741E+00  0.1215E+02
      8.567  0.2725E+00  0.1216E+02
      8.600  0.2725E+00  0.1217E+02
      8.633  0.2785E+00  0.1218E+02
      8.667  0.2779E+00  0.1219E+02
      8.700  0.2816E+00  0.1220E+02
      8.733  0.2811E+00  0.1221E+02
      8.767  0.2770E+00  0.1222E+02
      8.800  0.2804E+00  0.1223E+02
      8.833  0.2931E+00  0.1224E+02
      8.867  0.3034E+00  0.1225E+02
      8.900  0.2928E+00  0.1226E+02
      8.933  0.2882E+00  0.1227E+02
      8.967  0.2870E+00  0.1228E+02
      9.000  0.2853E+00  0.1229E+02
      9.033  0.2828E+00  0.1230E+02
      9.067  0.2844E+00  0.1231E+02
      9.100  0.2795E+00  0.1232E+02
      9.133  0.2768E+00  0.1232E+02
      9.167  0.2742E+00  0.1233E+02
      9.200  0.2704E+00  0.1234E+02
      9.233  0.2695E+00  0.1235E+02
      9.267  0.2688E+00  0.1236E+02
      9.300  0.2678E+00  0.1237E+02
      9.333  0.2666E+00  0.1238E+02
      9.367  0.2634E+00  0.1239E+02
      9.400  0.2659E+00  0.1240E+02
      9.433  0.2618E+00  0.1241E+02
      9.467  0.2611E+00  0.1241E+02
      9.500  0.2608E+00  0.1242E+02
      9.533  0.2599E+00  0.1243E+02
      9.567  0.2584E+00  0.1244E+02
      9.600  0.2634E+00  0.1245E+02
      9.633  0.2527E+00  0.1246E+02
      9.667  0.2514E+00  0.1247E+02
      9.700  0.2513E+00  0.1247E+02
      9.733  0.2553E+00  0.1248E+02
      9.767  0.2478E+00  0.1249E+02
      9.800  0.2451E+00  0.1250E+02
      9.833  0.2444E+00  0.1251E+02
      9.867  0.2438E+00  0.1252E+02
      9.900  0.2429E+00  0.1252E+02
      9.933  0.2422E+00  0.1253E+02
      9.967  0.2416E+00  0.1254E+02
     10.000  0.2420E+00  0.1255E+02
     10.033  0.2421E+00  0.1256E+02
     10.067  0.2416E+00  0.1256E+02
     10.100  0.2405E+00  0.1257E+02
     10.133  0.2390E+00  0.1258E+02
     10.167  0.2369E+00  0.1259E+02
     10.200  0.2356E+00  0.1260E+02
     10.233  0.2347E+00  0.1260E+02
     10.267  0.2339E+00  0.1261E+02
     10.300  0.2332E+00  0.1262E+02
     10.333  0.2325E+00  0.1263E+02
     10.367  0.2318E+00  0.1263E+02
     10.400  0.2310E+00  0.1264E+02
     10.433  0.2300E+00  0.1265E+02
     10.467  0.2292E+00  0.1266E+02
     10.500  0.2281E+00  0.1267E+02
     10.533  0.2271E+00  0.1267E+02
     10.567  0.2262E+00  0.1268E+02
     10.600  0.2254E+00  0.1269E+02
     10.633  0.2249E+00  0.1270E+02
     10.667  0.2243E+00  0.1270E+02
     10.700  0.2236E+00  0.1271E+02
     10.733  0.2226E+00  0.1272E+02
     10.767  0.2220E+00  0.1273E+02
     10.800  0.2218E+00  0.1273E+02
     10.833  0.2225E+00  0.1274E+02
     10.867  0.2300E+00  0.1275E+02
     10.900  0.2604E+00  0.1276E+02
     10.933  0.2738E+00  0.1276E+02
     10.967  0.2777E+00  0.1277E+02
     11.000  0.2930E+00  0.1278E+02
     11.033  0.2958E+00  0.1279E+02
     11.067  0.3170E+00  0.1280E+02
     11.100  0.3095E+00  0.1281E+02
     11.133  0.3276E+00  0.1282E+02
     11.167  0.3294E+00  0.1284E+02
     11.200  0.3154E+00  0.1285E+02
     11.233  0.3139E+00  0.1286E+02
     11.267  0.3136E+00  0.1287E+02
     11.300  0.3015E+00  0.1288E+02
     11.333  0.2973E+00  0.1289E+02
     11.367  0.2959E+00  0.1290E+02
     11.400  0.2902E+00  0.1291E+02
     11.433  0.2829E+00  0.1292E+02
     11.467  0.2940E+00  0.1293E+02
     11.500  0.2992E+00  0.1294E+02
     11.533  0.3054E+00  0.1295E+02
     11.567  0.3081E+00  0.1296E+02
     11.600  0.3129E+00  0.1297E+02
     11.633  0.3154E+00  0.1298E+02
     11.667  0.3223E+00  0.1299E+02
     11.700  0.3297E+00  0.1300E+02
     11.733  0.3312E+00  0.1301E+02
     11.767  0.3544E+00  0.1302E+02
     11.800  0.3446E+00  0.1303E+02
     11.833  0.3451E+00  0.1304E+02
     11.867  0.3453E+00  0.1306E+02
     11.900  0.3457E+00  0.1307E+02
     11.933  0.3457E+00  0.1308E+02
     11.967  0.3500E+00  0.1309E+02
     12.000  0.3486E+00  0.1310E+02
     12.033  0.3490E+00  0.1311E+02
     12.067  0.3483E+00  0.1313E+02
     12.100  0.3474E+00  0.1314E+02
     12.133  0.3501E+00  0.1315E+02
     12.167  0.3515E+00  0.1316E+02
     12.200  0.3501E+00  0.1317E+02
     12.233  0.3476E+00  0.1318E+02
     12.267  0.3473E+00  0.1320E+02
     12.300  0.3476E+00  0.1321E+02
     12.333  0.3483E+00  0.1322E+02
     12.367  0.3495E+00  0.1323E+02
     12.400  0.3484E+00  0.1324E+02
     12.433  0.3470E+00  0.1325E+02
     12.467  0.3480E+00  0.1326E+02
     12.500  0.3472E+00  0.1328E+02
     12.533  0.3472E+00  0.1329E+02
     12.567  0.3479E+00  0.1330E+02
     12.600  0.3495E+00  0.1331E+02
     12.633  0.3518E+00  0.1332E+02
     12.667  0.3553E+00  0.1333E+02
     12.700  0.3552E+00  0.1335E+02
     12.733  0.3543E+00  0.1336E+02
     12.767  0.3543E+00  0.1337E+02
     12.800  0.3547E+00  0.1338E+02
     12.833  0.3544E+00  0.1339E+02
     12.867  0.3543E+00  0.1341E+02
     12.900  0.3544E+00  0.1342E+02
     12.933  0.3552E+00  0.1343E+02
     12.967  0.3558E+00  0.1344E+02
     13.000  0.3543E+00  0.1345E+02
     13.033  0.3545E+00  0.1346E+02
     13.067  0.3549E+00  0.1348E+02
     13.100  0.3557E+00  0.1349E+02
     13.133  0.3563E+00  0.1350E+02
     13.167  0.3568E+00  0.1351E+02
     13.200  0.3571E+00  0.1352E+02
     13.233  0.3575E+00  0.1354E+02
     13.267  0.3592E+00  0.1355E+02
     13.300  0.3605E+00  0.1356E+02
     13.333  0.3618E+00  0.1357E+02
     13.367  0.3625E+00  0.1358E+02
     13.400  0.3618E+00  0.1360E+02
     13.433  0.3618E+00  0.1361E+02
     13.467  0.3629E+00  0.1362E+02
     13.500  0.3636E+00  0.1363E+02
     13.533  0.3642E+00  0.1364E+02
     13.567  0.3641E+00  0.1366E+02
     13.600  0.3640E+00  0.1367E+02
     13.633  0.3640E+00  0.1368E+02
     13.667  0.3656E+00  0.1369E+02
     13.700  0.3658E+00  0.1371E+02
     13.733  0.3664E+00  0.1372E+02
     13.767  0.3659E+00  0.1373E+02
     13.800  0.3648E+00  0.1374E+02
     13.833  0.3645E+00  0.1375E+02
     13.867  0.3656E+00  0.1377E+02
     13.900  0.3654E+00  0.1378E+02
     13.933  0.3653E+00  0.1379E+02
     13.967  0.3654E+00  0.1380E+02
     14.000  0.3659E+00  0.1381E+02
     14.033  0.3662E+00  0.1383E+02
     14.067  0.3678E+00  0.1384E+02
     14.100  0.3687E+00  0.1385E+02
     14.133  0.3694E+00  0.1386E+02
     14.167  0.3705E+00  0.1388E+02
     14.200  0.3716E+00  0.1389E+02
     14.233  0.3713E+00  0.1390E+02
     14.267  0.3707E+00  0.1391E+02
     14.300  0.3720E+00  0.1393E+02
     14.333  0.3720E+00  0.1394E+02
     14.367  0.3724E+00  0.1395E+02
     14.400  0.3724E+00  0.1396E+02
     14.433  0.3734E+00  0.1398E+02
     14.467  0.3736E+00  0.1399E+02
     14.500  0.3742E+00  0.1400E+02
     14.533  0.3756E+00  0.1401E+02
     14.567  0.3762E+00  0.1403E+02
     14.600  0.3766E+00  0.1404E+02
     14.633  0.3776E+00  0.1405E+02
     14.667  0.3780E+00  0.1406E+02
     14.700  0.3777E+00  0.1408E+02
     14.733  0.3770E+00  0.1409E+02
     14.767  0.3770E+00  0.1410E+02
     14.800  0.3776E+00  0.1411E+02
     14.833  0.3779E+00  0.1413E+02
     14.867  0.3780E+00  0.1414E+02
     14.900  0.3780E+00  0.1415E+02
     14.933  0.3787E+00  0.1416E+02
     14.967  0.3789E+00  0.1418E+02
     15.000  0.3791E+00  0.1419E+02
     15.033  0.3798E+00  0.1420E+02
     15.067  0.3801E+00  0.1421E+02
     15.100  0.3815E+00  0.1423E+02
     15.133  0.3828E+00  0.1424E+02
     15.167  0.3840E+00  0.1425E+02
     15.200  0.3850E+00  0.1427E+02
     15.233  0.3851E+00  0.1428E+02
     15.267  0.3857E+00  0.1429E+02
     15.300  0.3873E+00  0.1430E+02
     15.333  0.3879E+00  0.1432E+02
     15.367  0.3885E+00  0.1433E+02
     15.400  0.3881E+00  0.1434E+02
     15.433  0.3891E+00  0.1436E+02
     15.467  0.3896E+00  0.1437E+02
     15.500  0.3902E+00  0.1438E+02
     15.533  0.3908E+00  0.1439E+02
     15.567  0.3903E+00  0.1441E+02
     15.600  0.3911E+00  0.1442E+02
     15.633  0.3930E+00  0.1443E+02
     15.667  0.3927E+00  0.1445E+02
     15.700  0.3931E+00  0.1446E+02
     15.733  0.3928E+00  0.1447E+02
     15.767  0.3930E+00  0.1449E+02
     15.800  0.3948E+00  0.1450E+02
     15.833  0.3955E+00  0.1451E+02
     15.867  0.3976E+00  0.1453E+02
     15.900  0.3973E+00  0.1454E+02
     15.933  0.3992E+00  0.1455E+02
     15.967  0.4002E+00  0.1457E+02
     16.000  0.4008E+00  0.1458E+02
     16.033  0.4004E+00  0.1459E+02
     16.067  0.4009E+00  0.1461E+02
     16.100  0.4019E+00  0.1462E+02
     16.133  0.4040E+00  0.1463E+02
     16.167  0.4063E+00  0.1465E+02
     16.200  0.4056E+00  0.1466E+02
     16.233  0.4063E+00  0.1467E+02
     16.267  0.4086E+00  0.1469E+02
     16.300  0.4091E+00  0.1470E+02
     16.333  0.4117E+00  0.1471E+02
     16.367  0.4124E+00  0.1473E+02
     16.400  0.4152E+00  0.1474E+02
     16.433  0.4155E+00  0.1476E+02
     16.467  0.4165E+00  0.1477E+02
     16.500  0.4178E+00  0.1478E+02
     16.533  0.4198E+00  0.1480E+02
     16.567  0.4217E+00  0.1481E+02
     16.600  0.4224E+00  0.1483E+02
     16.633  0.4242E+00  0.1484E+02
     16.667  0.4266E+00  0.1485E+02
     16.700  0.4289E+00  0.1487E+02
     16.733  0.4373E+00  0.1488E+02
     16.767  0.4348E+00  0.1490E+02
     16.800  0.4480E+00  0.1491E+02
     16.833  0.4471E+00  0.1493E+02
     16.867  0.4582E+00  0.1494E+02
     16.900  0.4582E+00  0.1496E+02
     16.933  0.4586E+00  0.1497E+02
     16.967  0.4573E+00  0.1499E+02
     17.000  0.4546E+00  0.1500E+02
     17.033  0.4526E+00  0.1502E+02
     17.067  0.4524E+00  0.1503E+02
     17.100  0.4522E+00  0.1505E+02
     17.133  0.4502E+00  0.1506E+02
     17.167  0.4501E+00  0.1508E+02
     17.200  0.4487E+00  0.1509E+02
     17.233  0.4474E+00  0.1511E+02
     17.267  0.4475E+00  0.1512E+02
     17.300  0.4465E+00  0.1514E+02
     17.333  0.4462E+00  0.1515E+02
     17.367  0.4443E+00  0.1517E+02
     17.400  0.4430E+00  0.1518E+02
     17.433  0.4413E+00  0.1520E+02
     17.467  0.4399E+00  0.1521E+02
     17.500  0.4385E+00  0.1523E+02