    1    1    1    1
  0.1185948E+02  0.2559727E-09  0.2559727E-09  0.2559727E-09  0.5000000E-15
  1.000000000000000E-004
  CAR 
 unknown system                          
   11 2769   16
 
  0.0000000E+00  0.0000000E+00  0.0000000E+00  0.9042245E-05
   1       -5.5470
   2        0.6695
   3        0.6696
   4        0.6696
   5        1.4889
   6        1.4889
   7       26.8845
   8       29.1240
   9       29.1241
  10       29.1241
  11       31.8970
  12       31.8971
  13       31.8973
  14       35.3418
  15       40.3103
  16       40.3105
 
  0.2083333E-01 -0.8531293E-18 -0.8531293E-18  0.7233796E-04
   1       -5.5312
   2        0.6634
   3        0.6726
   4        0.6726
   5        1.4870
   6        1.4870
   7       26.8101
   8       28.7794
   9       29.0647
  10       29.0648
  11       31.9780
  12       31.9781
  13       32.1916
  14       35.4056
  15       40.0809
  16       40.0812
 
  0.4166667E-01 -0.3358271E-18 -0.3358271E-18  0.7233796E-04
   1       -5.4838
   2        0.6528
   3        0.6787
   4        0.6787
   5        1.4821
   6        1.4821
   7       26.5080
   8       28.1641
   9       28.9032
  10       28.9033
  11       32.1511
  12       32.1512
  13       32.8460
  14       35.6489
  15       39.5342
  16       39.5345
 
  0.6250000E-01 -0.2758881E-17 -0.2758881E-17  0.7233796E-04
   1       -5.4051
   2        0.6364
   3        0.6931
   4        0.6931
   5        1.4765
   6        1.4766
   7       25.8343
   8       27.7529
   9       28.6790
  10       28.6790
  11       32.4920
  12       32.4921
  13       33.3665
  14       36.1933
  15       38.8664
  16       38.8667
 
  0.8333333E-01 -0.5181935E-17  0.1756959E-17  0.7233796E-04
   1       -5.2955
   2        0.6146
   3        0.7122
   4        0.7122
   5        1.4699
   6        1.4699
   7       24.8788
   8       27.5617
   9       28.4248
  10       28.4248
  11       32.9057
  12       32.9059
  13       33.6190
  14       37.0598
  15       38.1675
  16       38.1678
 
  0.1041667E+00 -0.3094708E-17 -0.3094708E-17  0.7233796E-04
   1       -5.1554
   2        0.5884
   3        0.7348
   4        0.7348
   5        1.4634
   6        1.4635
   7       23.8105
   8       27.4563
   9       28.1615
  10       28.1615
  11       33.3628
  12       33.3630
  13       33.6910
  14       37.4808
  15       37.4810
  16       38.1107
 
  0.1250000E+00 -0.5517762E-17 -0.5517762E-17  0.7233796E-04
   1       -4.9857
   2        0.5589
   3        0.7591
   4        0.7591
   5        1.4586
   6        1.4586
   7       22.7057
   8       27.3734
   9       27.9014
  10       27.9014
  11       33.6811
  12       33.8294
  13       33.8296
  14       36.8432
  15       36.8436
  16       39.1890
 
  0.1458333E+00 -0.1661118E-17 -0.1661118E-17  0.7233796E-04
   1       -4.7873
   2        0.5276
   3        0.7830
   4        0.7831
   5        1.4574
   6        1.4575
   7       21.5937
   8       27.2888
   9       27.6511
  10       27.6512
  11       33.6435
  12       34.2319
  13       34.2323
  14       36.3291
  15       36.3295
  16       40.1458
 
  0.1666667E+00 -0.5853590E-17 -0.5853590E-17  0.7233796E-04
   1       -4.5618
   2        0.4965
   3        0.8042
   4        0.8043
   5        1.4620
   6        1.4622
   7       20.4877
   8       27.1923
   9       27.4148
  10       27.4149
  11       33.6055
  12       34.3768
  13       34.3772
  14       36.1323
  15       36.1328
  16       40.8905
 
  0.1875000E+00 -0.1996945E-17 -0.1996945E-17  0.7233796E-04
   1       -4.3109
   2        0.4665
   3        0.8202
   4        0.8203
   5        1.4747
   6        1.4748
   7       19.3912
   8       27.0774
   9       27.1946
  10       27.1947
  11       33.5810
  12       34.1154
  13       34.1157
  14       36.4020
  15       36.4023
  16       41.4497
 
  0.2083333E+00 -0.1069970E-16  0.3178090E-17  0.7233796E-04
   1       -4.0370
   2        0.4427
   3        0.8291
   4        0.8293
   5        1.4968
   6        1.4969
   7       18.3151
   8       26.9467
   9       26.9919
  10       26.9920
  11       33.5769
  12       33.6442
  13       33.6443
  14       36.9418
  15       36.9420
  16       41.9646
 
  0.2291667E+00 -0.2876996E-16 -0.1014382E-17  0.7233796E-04
   1       -3.7436
   2        0.4277
   3        0.8302
   4        0.8304
   5        1.5288
   6        1.5290
   7       17.2591
   8       26.8004
   9       26.8071
  10       26.8072
  11       33.1206
  12       33.1207
  13       33.5942
  14       37.5948
  15       37.5949
  16       42.4645
 
  0.2500000E+00 -0.1103552E-16 -0.1103552E-16  0.7233796E-04
   1       -3.4351
   2        0.4256
   3        0.8235
   4        0.8237
   5        1.5679
   6        1.5682
   7       16.2243
   8       26.6404
   9       26.6406
  10       26.6414
  11       32.5827
  12       32.5828
  13       33.6299
  14       38.3077
  15       38.3078
  16       42.9658
 
  0.2708333E+00 -0.7178880E-17 -0.7178880E-17  0.7233796E-04
   1       -3.1179
   2        0.4432
   3        0.8106
   4        0.8108
   5        1.6161
   6        1.6163
   7       15.2152
   8       26.4748
   9       26.4920
  10       26.4922
  11       32.0777
  12       32.0778
  13       33.6829
  14       39.0643
  15       39.0644
  16       43.4988
 
  0.2916667E+00 -0.1137135E-16 -0.1137135E-16  0.7233796E-04
   1       -2.8004
   2        0.4881
   3        0.7931
   4        0.7933
   5        1.6692
   6        1.6695
   7       14.2327
   8       26.3050
   9       26.3616
  10       26.3618
  11       31.6005
  12       31.6006
  13       33.7481
  14       39.8556
  15       39.8557
  16       44.0602
 
  0.3125000E+00 -0.7514707E-17 -0.7514707E-17  0.7233796E-04
   1       -2.4937
   2        0.5711
   3        0.7728
   4        0.7730
   5        1.7279
   6        1.7281
   7       13.2840
   8       26.1385
   9       26.2503
  10       26.2505
  11       31.1693
  12       31.1694
  13       33.8292
  14       40.6927
  15       40.6928
  16       44.6758
 
  0.3333333E+00 -0.3141364E-16 -0.3658062E-17  0.7233796E-04
   1       -2.2107
   2        0.7026
   3        0.7508
   4        0.7510
   5        1.7844
   6        1.7846
   7       12.3685
   8       25.9778
   9       26.1539
  10       26.1541
  11       30.7604
  12       30.7605
  13       33.9252
  14       41.5442
  15       41.5444
  16       45.3173
 
  0.3541667E+00 -0.7850534E-17 -0.7850534E-17  0.7233796E-04
   1       -1.9646
   2        0.7288
   3        0.7289
   4        0.8905
   5        1.8385
   6        1.8388
   7       11.4818
   8       25.8246
   9       26.0732
  10       26.0735
  11       30.3902
  12       30.3903
  13       34.0044
  14       42.4143
  15       42.4144
  16       45.9581
 
  0.3750000E+00 -0.3993889E-17 -0.3993889E-17  0.7233796E-04
   1       -1.7644
   2        0.7054
   3        0.7056
   4        1.1406
   5        1.8870
   6        1.8873
   7       10.6368
   8       25.6844
   9       26.0029
  10       26.0032
  11       30.0299
  12       30.0300
  13       34.0784
  14       43.2877
  15       43.2878
  16       46.6187
 
  0.3958333E+00 -0.1372444E-18 -0.1372444E-18  0.7233796E-04
   1       -1.6119
   2        0.6859
   3        0.6861
   4        1.4473
   5        1.9328
   6        1.9330
   7        9.8432
   8       25.5617
   9       25.9516
  10       25.9519
  11       29.7444
  12       29.7445
  13       34.1451
  14       44.1892
  15       44.1894
  16       47.2901
 
  0.4166667E+00 -0.4329716E-17 -0.4329716E-17  0.7233796E-04
   1       -1.5025
   2        0.6690
   3        0.6692
   4        1.7931
   5        1.9722
   6        1.9724
   7        9.1137
   8       25.4582
   9       25.9128
  10       25.9131
  11       29.5062
  12       29.5063
  13       34.2021
  14       45.0929
  15       45.0930
  16       47.9528
 
  0.4375000E+00 -0.4730716E-18 -0.4730716E-18  0.7233796E-04
   1       -1.4282
   2        0.6554
   3        0.6555
   4        2.0062
   5        2.0065
   6        2.1489
   7        8.4707
   8       25.3758
   9       25.8851
  10       25.8855
  11       29.3178
  12       29.3179
  13       34.2517
  14       45.9838
  15       45.9840
  16       48.5818
 
  0.4583333E+00  0.6020353E-17  0.6020353E-17  0.7233796E-04
   1       -1.3812
   2        0.6453
   3        0.6455
   4        2.0294
   5        2.0296
   6        2.4725
   7        7.9470
   8       25.3159
   9       25.8664
  10       25.8668
  11       29.1812
  12       29.1813
  13       34.2854
  14       46.8005
  15       46.8007
  16       49.1152
 
  0.4791667E+00  0.1827881E-17  0.1827881E-17  0.7233796E-04
   1       -1.3555
   2        0.6391
   3        0.6393
   4        2.0435
   5        2.0438
   6        2.7078
   7        7.5940
   8       25.2796
   9       25.8558
  10       25.8562
  11       29.0984
  12       29.0986
  13       34.3059
  14       47.4450
  15       47.4452
  16       49.4891
 
  0.5000000E+00 -0.2207105E-16 -0.2207105E-16  0.3616898E-04
   1       -1.3473
   2        0.6371
   3        0.6372
   4        2.0483
   5        2.0486
   6        2.7955
   7        7.4674
   8       25.2674
   9       25.8524
  10       25.8528
  11       29.0707
  12       29.0708
  13       34.3127
  14       47.7094
  15       47.7096
  16       49.6260
 
  0.2083333E-01  0.2083333E-01 -0.4369407E-18  0.5425347E-04
   1       -5.5259
   2        0.6629
   3        0.6727
   4        0.6727
   5        1.4817
   6        1.4912
   7       26.7964
   8       28.8474
   9       28.8475
  10       29.0316
  11       32.0226
  12       32.1496
  13       32.1497
  14       35.4141
  15       39.7390
  16       40.3489
 
  0.4166667E-01  0.2083333E-01 -0.1217421E-17  0.2170139E-03
   1       -5.4891
   2        0.6516
   3        0.6793
   4        0.6795
   5        1.4744
   6        1.4910
   7       26.6049
   8       28.2922
   9       28.5707
  10       29.0605
  11       32.0271
  12       32.4421
  13       32.7053
  14       35.5580
  15       39.1746
  16       40.1550
 
  0.6250000E-01  0.2083333E-01 -0.3358271E-18  0.2170139E-03
   1       -5.4208
   2        0.6368
   3        0.6918
   4        0.6929
   5        1.4655
   6        1.4899
   7       26.0868
   8       27.7524
   9       28.2692
  10       29.0646
  11       32.1357
  12       32.8264
  13       33.3374
  14       35.9377
  15       38.5319
  16       39.6435
 
  0.8333333E-01  0.2083333E-01 -0.2758881E-17  0.2170139E-03
   1       -5.3215
   2        0.6166
   3        0.7073
   4        0.7110
   5        1.4551
   6        1.4869
   7       25.2179
   8       27.4609
   9       27.9611
  10       29.0038
  11       32.3054
  12       33.2577
  13       33.7322
  14       36.5875
  15       37.9328
  16       39.0068
 
  0.1041667E+00  0.2083333E-01 -0.6716543E-18  0.2170139E-03
   1       -5.1915
   2        0.5917
   3        0.7286
   4        0.7329
   5        1.4446
   6        1.4842
   7       24.1796
   8       27.2955
   9       27.6592
  10       28.8963
  11       32.5583
  12       33.7210
  13       33.9393
  14       36.8426
  15       37.9896
  16       38.3500
 
  0.1250000E+00  0.2083333E-01 -0.3094708E-17  0.2170139E-03
   1       -5.0317
   2        0.5631
   3        0.7525
   4        0.7568
   5        1.4353
   6        1.4825
   7       23.0840
   8       27.1641
   9       27.3694
  10       28.7609
  11       32.7881
  12       34.1152
  13       34.1894
  14       36.3273
  15       37.7235
  16       38.9344
 
  0.1458333E+00  0.2083333E-01 -0.5517762E-17  0.2170139E-03
   1       -4.8429
   2        0.5323
   3        0.7771
   4        0.7808
   5        1.4292
   6        1.4837
   7       21.9732
   8       27.0361
   9       27.0957
  10       28.6097
  11       32.9194
  12       34.3666
  13       34.6109
  14       35.7630
  15       37.1909
  16       39.9234
 
  0.1666667E+00  0.2083333E-01  0.4167553E-17  0.2170139E-03
   1       -4.6264
   2        0.5008
   3        0.7997
   4        0.8027
   5        1.4286
   6        1.4898
   7       20.8647
   8       26.8404
   9       26.9026
  10       28.4481
  11       32.9275
  12       34.6212
  13       34.8541
  14       35.3681
  15       36.8886
  16       40.7372
 
  0.1875000E+00  0.2083333E-01 -0.5853590E-17  0.2170139E-03
   1       -4.3839
   2        0.4709
   3        0.8178
   4        0.8201
   5        1.4360
   6        1.5027
   7       19.7671
   8       26.6049
   9       26.7621
  10       28.2775
  11       32.8264
  12       34.4778
  13       34.7455
  14       35.5574
  15       36.9929
  16       41.3662
 
  0.2083333E+00  0.2083333E-01 -0.1996945E-17  0.2170139E-03
   1       -4.1175
   2        0.4437
   3        0.8289
   4        0.8312
   5        1.4535
   6        1.5240
   7       18.6817
   8       26.3901
   9       26.6147
  10       28.0979
  11       32.6167
  12       34.1829
  13       34.3589
  14       36.0937
  15       37.4319
  16       41.8758
 
  0.2291667E+00  0.2083333E-01 -0.6189417E-17  0.2170139E-03
   1       -3.8304
   2        0.4251
   3        0.8329
   4        0.8349
   5        1.4822
   6        1.5543
   7       17.6199
   8       26.1966
   9       26.4665
  10       27.9167
  11       32.3041
  12       33.8686
  13       33.9862
  14       36.7394
  15       38.0320
  16       42.3855
 
  0.2500000E+00  0.2083333E-01 -0.1014382E-17  0.2170139E-03
   1       -3.5266
   2        0.4178
   3        0.8275
   4        0.8311
   5        1.5201
   6        1.5930
   7       16.5782
   8       26.0248
   9       26.3173
  10       27.7228
  11       31.9139
  12       33.3553
  13       33.8896
  14       37.4275
  15       38.7132
  16       42.8950
 
  0.2708333E+00  0.2083333E-01 -0.1103552E-16  0.2170139E-03
   1       -3.2117
   2        0.4272
   3        0.8150
   4        0.8205
   5        1.5680
   6        1.6370
   7       15.5598
   8       25.8747
   9       26.1706
  10       27.5247
  11       31.4981
  12       32.8340
  13       33.8676
  14       38.1586
  15       39.4453
  16       43.4221
 
  0.2916667E+00  0.2083333E-01 -0.1522800E-16  0.2170139E-03
   1       -2.8935
   2        0.4611
   3        0.7974
   4        0.8051
   5        1.6251
   6        1.6882
   7       14.5697
   8       25.7485
   9       26.0287
  10       27.3254
  11       31.1016
  12       32.3462
  13       33.8923
  14       38.9329
  15       40.2229
  16       43.9898
 
  0.3125000E+00  0.2083333E-01 -0.1400813E-16  0.2170139E-03
   1       -2.5822
   2        0.5279
   3        0.7765
   4        0.7859
   5        1.6849
   6        1.7436
   7       13.6076
   8       25.6433
   9       25.8916
  10       27.1274
  11       30.7247
  12       31.8910
  13       33.9405
  14       39.7342
  15       41.0360
  16       44.5872
 
  0.3333333E+00  0.2083333E-01 -0.7514707E-17  0.2170139E-03
   1       -2.2902
   2        0.6389
   3        0.7527
   4        0.7646
   5        1.7480
   6        1.7981
   7       12.6805
   8       25.5588
   9       25.7636
  10       26.9313
  11       30.3639
  12       31.4629
  13       34.0154
  14       40.5729
  15       41.8614
  16       45.2302
 
  0.3541667E+00  0.2083333E-01 -0.1170718E-16  0.2170139E-03
   1       -2.0310
   2        0.7293
   3        0.7427
   4        0.8022
   5        1.8124
   6        1.8501
   7       11.7833
   8       25.4989
   9       25.6426
  10       26.7393
  11       30.0610
  12       31.0600
  13       34.0913
  14       41.4280
  15       42.7164
  16       45.8803
 
  0.3750000E+00  0.2083333E-01 -0.7850534E-17  0.2170139E-03
   1       -1.8153
   2        0.7061
   3        0.7209
   4        1.0221
   5        1.8785
   6        1.8975
   7       10.9234
   8       25.4614
   9       25.5289
  10       26.5526
  11       29.7921
  12       30.6828
  13       34.1609
  14       42.3013
  15       43.5866
  16       46.5411
 
  0.3958333E+00  0.2083333E-01 -0.3993889E-17  0.2170139E-03
   1       -1.6477
   2        0.6856
   3        0.6994
   4        1.2912
   5        1.9411
   6        1.9501
   7       10.1109
   8       25.4293
   9       25.4437
  10       26.3739
  11       29.5851
  12       30.3303
  13       34.2260
  14       43.1886
  15       44.4713
  16       47.2128
 
  0.4166667E+00  0.2083333E-01 -0.8186361E-17  0.2170139E-03
   1       -1.5252
   2        0.6676
   3        0.6814
   4        1.5755
   5        1.9788
   6        2.0482
   7        9.3573
   8       25.3429
   9       25.4523
  10       26.2056
  11       29.4303
  12       30.0328
  13       34.2837
  14       44.0998
  15       45.3571
  16       47.8752
 
  0.4375000E+00  0.2083333E-01 -0.4329716E-17  0.2170139E-03
   1       -1.4405
   2        0.6530
   3        0.6663
   4        1.7949
   5        2.0112
   6        2.2264
   7        8.6813
   8       25.2704
   9       25.4834
  10       26.0500
  11       29.3275
  12       29.7739
  13       34.3340
  14       45.0194
  15       46.2240
  16       48.4986
 
  0.4583333E+00  0.2083333E-01 -0.4730716E-18  0.2170139E-03
   1       -1.3854
   2        0.6419
   3        0.6546
   4        1.9044
   5        2.0328
   6        2.4908
   7        8.1117
   8       25.2116
   9       25.5353
  10       25.9114
  11       29.2757
  12       29.5550
  13       34.3724
  14       45.9210
  15       47.0025
  16       49.0175
 
  0.4791667E+00  0.2083333E-01 -0.2028764E-17  0.2170139E-03
   1       -1.3533
   2        0.6349
   3        0.6465
   4        1.9535
   5        2.0455
   6        2.7370
   7        7.6938
   8       25.1651
   9       25.6072
  10       25.7946
  11       29.2727
  12       29.3780
  13       34.3973
  14       46.7581
  15       47.5746
  16       49.3410
 
  0.5000000E+00  0.2083333E-01  0.1827881E-17  0.2170139E-03
   1       -1.3396
   2        0.6319
   3        0.6425
   4        1.9747
   5        2.0487
   6        2.8719
   7        7.4856
   8       25.1281
   9       25.6970
  10       25.7061
  11       29.2454
  12       29.3166
  13       34.4094
  14       47.4218
  15       47.7181
  16       49.3981
 
 -0.4791667E+00  0.2083333E-01  0.2207105E-16  0.2170139E-03
   1       -1.3423
   2        0.6332
   3        0.6426
   4        1.9757
   5        2.0424
   6        2.8441
   7        7.5284
   8       25.0973
   9       25.6521
  10       25.8021
  11       29.1599
  12       29.4052
  13       34.4086
  14       47.3387
  15       47.6501
  16       49.3090
 
 -0.4583333E+00  0.2083333E-01 -0.9876998E-17  0.2170139E-03
   1       -1.3618
   2        0.6387
   3        0.6469
   4        1.9546
   5        2.0267
   6        2.6653
   7        7.8128
   8       25.0703
   9       25.6371
  10       25.9192
  11       29.1247
  12       29.5362
  13       34.3950
  14       46.6280
  15       47.2801
  16       49.1872
 
 -0.4375000E+00  0.2083333E-01 -0.6020353E-17  0.2170139E-03
   1       -1.4009
   2        0.6481
   3        0.6551
   4        1.8961
   5        2.0019
   6        2.4053
   7        8.2874
   8       25.0480
   9       25.6613
  10       26.0443
  11       29.1432
  12       29.7077
  13       34.3691
  14       45.7751
  15       46.5730
  16       48.8596
 
 -0.4166667E+00  0.2083333E-01  0.4730716E-18  0.2170139E-03
   1       -1.4650
   2        0.6613
   3        0.6672
   4        1.7493
   5        1.9662
   6        2.1746
   7        8.8965
   8       25.0337
   9       25.7214
  10       26.1735
  11       29.2185
  12       29.9177
  13       34.3294
  14       44.8602
  15       45.7432
  16       48.3309
 
 -0.3958333E+00  0.2083333E-01 -0.6356180E-17  0.2170139E-03
   1       -1.5613
   2        0.6777
   3        0.6827
   4        1.4891
   5        1.9250
   6        2.0459
   7        9.6011
   8       25.0318
   9       25.8126
  10       26.3041
  11       29.3533
  12       30.1643
  13       34.2818
  14       43.9384
  15       44.8667
  16       47.7020
 
 -0.3750000E+00  0.2083333E-01 -0.2499535E-17  0.2170139E-03
   1       -1.6982
   2        0.6978
   3        0.7015
   4        1.2002
   5        1.8778
   6        1.9722
   7       10.3761
   8       25.0486
   9       25.9306
  10       26.4352
  11       29.5518
  12       30.4608
  13       34.2285
  14       43.0296
  15       43.9905
  16       47.0357
 
 -0.3541667E+00  0.2083333E-01  0.3993889E-17  0.2170139E-03
   1       -1.8819
   2        0.7188
   3        0.7224
   4        0.9442
   5        1.8251
   6        1.9109
   7       11.2052
   8       25.0802
   9       26.0709
  10       26.5650
  11       29.8056
  12       30.7729
  13       34.1702
  14       42.1259
  15       43.1232
  16       46.3636
 
 -0.3333333E+00  0.2083333E-01 -0.1985827E-18  0.2170139E-03
   1       -2.1129
   2        0.7371
   3        0.7450
   4        0.7478
   5        1.7702
   6        1.8525
   7       12.0792
   8       25.1331
   9       26.2309
  10       26.6954
  11       30.1242
  12       31.1239
  13       34.1128
  14       41.2468
  15       42.2801
  16       45.7045
 
 -0.3125000E+00  0.2083333E-01  0.3658062E-17  0.2170139E-03
   1       -2.3845
   2        0.5972
   3        0.7647
   4        0.7690
   5        1.7118
   6        1.7955
   7       12.9860
   8       25.2028
   9       26.4031
  10       26.8308
  11       30.5062
  12       31.4836
  13       34.0544
  14       40.3804
  15       41.4604
  16       45.0506
 
 -0.2916667E+00  0.2083333E-01  0.7514707E-17  0.2170139E-03
   1       -2.6844
   2        0.5021
   3        0.7858
   4        0.7906
   5        1.6532
   6        1.7363
   7       13.9257
   8       25.2925
   9       26.5840
  10       26.9679
  11       30.9172
  12       31.8431
  13       34.0231
  14       39.5372
  15       40.6506
  16       44.4205
 
 -0.2708333E+00  0.2083333E-01  0.3322235E-17  0.2170139E-03
   1       -2.9993
   2        0.4469
   3        0.8045
   4        0.8098
   5        1.5948
   6        1.6792
   7       14.8958
   8       25.3994
   9       26.7691
  10       27.1130
  11       31.3557
  12       32.2070
  13       34.0321
  14       38.7171
  15       39.8646
  16       43.8210
 
 -0.2500000E+00  0.2083333E-01  0.7178880E-17  0.2170139E-03
   1       -3.3174
   2        0.4223
   3        0.8196
   4        0.8250
   5        1.5438
   6        1.6289
   7       15.8967
   8       25.5275
   9       26.9556
  10       27.2687
  11       31.8470
  12       32.5473
  13       34.1189
  14       37.9396
  15       39.1254
  16       43.2693
 
 -0.2291667E+00  0.2083333E-01  0.1103552E-16  0.2170139E-03
   1       -3.6294
   2        0.4190
   3        0.8288
   4        0.8342
   5        1.5002
   6        1.5835
   7       16.9224
   8       25.6740
   9       27.1372
  10       27.4359
  11       32.3693
  12       32.8067
  13       34.3097
  14       37.1993
  15       38.4259
  16       42.7407
 
 -0.2083333E+00  0.2083333E-01  0.6843053E-17  0.2170139E-03
   1       -3.9281
   2        0.4308
   3        0.8312
   4        0.8358
   5        1.4679
   6        1.5466
   7       17.9720
   8       25.8380
   9       27.3094
  10       27.6161
  11       32.9241
  12       32.9812
  13       34.6145
  14       36.5077
  15       37.7796
  16       42.2359
 
 -0.1875000E+00  0.2083333E-01 -0.3178090E-17  0.2170139E-03
   1       -4.2088
   2        0.4521
   3        0.8252
   4        0.8288
   5        1.4445
   6        1.5177
   7       19.0404
   8       26.0151
   9       27.4682
  10       27.8092
  11       33.0899
  12       33.4523
  13       34.9694
  14       35.8925
  15       37.2074
  16       41.7164
 
 -0.1666667E+00  0.2083333E-01  0.1996945E-17  0.2170139E-03
   1       -4.4675
   2        0.4809
   3        0.8129
   4        0.8140
   5        1.4319
   6        1.4981
   7       20.1314
   8       26.2096
   9       27.6137
  10       28.0150
  11       33.1638
  12       33.8598
  13       35.2530
  14       35.4633
  15       36.8339
  16       41.1843
 
 -0.1458333E+00  0.2083333E-01 -0.3513917E-17  0.2170139E-03
   1       -4.7016
   2        0.5116
   3        0.7932
   4        0.7946
   5        1.4286
   6        1.4866
   7       21.2332
   8       26.4148
   9       27.7447
  10       28.2318
  11       33.2149
  12       33.8667
  13       35.2268
  14       35.5005
  15       36.8610
  16       40.5051
 
 -0.1250000E+00  0.2083333E-01  0.1661118E-17  0.2170139E-03
   1       -4.9090
   2        0.5431
   3        0.7690
   4        0.7724
   5        1.4321
   6        1.4816
   7       22.3435
   8       26.6284
   9       27.8672
  10       28.4560
  11       33.2361
  12       33.4987
  13       34.9190
  14       35.9804
  15       37.2419
  16       39.6351
 
 -0.1041667E+00  0.2083333E-01  0.5517762E-17  0.2170139E-03
   1       -5.0882
   2        0.5734
   3        0.7439
   4        0.7487
   5        1.4402
   6        1.4809
   7       23.4513
   8       26.8481
   9       27.9901
  10       28.6808
  11       33.0394
  12       33.2013
  13       34.5474
  14       36.6237
  15       37.6645
  16       38.7162
 
 -0.8333333E-01  0.2083333E-01  0.1325290E-17  0.2170139E-03
   1       -5.2382
   2        0.6009
   3        0.7203
   4        0.7256
   5        1.4505
   6        1.4827
   7       24.5329
   8       27.0792
   9       28.1246
  10       28.8936
  11       32.5991
  12       33.0770
  13       34.1910
  14       37.2772
  15       37.3286
  16       38.6458
 
 -0.6250000E-01  0.2083333E-01 -0.1756959E-17  0.2170139E-03
   1       -5.3580
   2        0.6244
   3        0.7000
   4        0.7049
   5        1.4613
   6        1.4851
   7       25.5271
   8       27.3580
   9       28.2815
  10       29.0723
  11       32.2266
  12       32.8586
  13       33.7977
  14       36.4307
  15       38.0610
  16       39.1794
 
 -0.4166667E-01  0.2083333E-01  0.2758881E-17  0.2170139E-03
   1       -5.4470
   2        0.6429
   3        0.6860
   4        0.6884
   5        1.4714
   6        1.4878
   7       26.2844
   8       27.7964
   9       28.4661
  10       29.1822
  11       32.0015
  12       32.5902
  13       33.2382
  14       35.8212
  15       38.7969
  16       39.7135
 
 -0.2083333E-01  0.2083333E-01  0.1706259E-17  0.1085069E-03
   1       -5.5049
   2        0.6558
   3        0.6767
   4        0.6773
   5        1.4803
   6        1.4883
   7       26.6747
   8       28.4242
   9       28.6957
  10       29.1839
  11       31.9140
  12       32.3155
  13       32.5538
  14       35.5160
  15       39.5007
  16       40.0722
 
  0.4166667E-01  0.4166667E-01 -0.8738814E-18  0.5425347E-04
   1       -5.4628
   2        0.6407
   3        0.6853
   4        0.6853
   5        1.4639
   6        1.4955
   7       26.5534
   8       28.2138
   9       28.2138
  10       28.7746
  11       32.3248
  12       32.7834
  13       32.7835
  14       35.5386
  15       38.7085
  16       40.4617
 
  0.6250000E-01  0.4166667E-01 -0.8531293E-18  0.2170139E-03
   1       -5.4051
   2        0.6264
   3        0.6980
   4        0.6985
   5        1.4520
   6        1.4995
   7       26.2440
   8       27.6865
   9       27.8575
  10       28.8106
  11       32.4143
  12       33.1927
  13       33.3789
  14       35.6447
  15       38.2362
  16       40.2986
 
  0.8333333E-01  0.4166667E-01 -0.1706259E-17  0.2170139E-03
   1       -5.3162
   2        0.6068
   3        0.7148
   4        0.7155
   5        1.4384
   6        1.5012
   7       25.5347
   8       27.2756
   9       27.5091
  10       28.9740
  11       32.3805
  12       33.6356
  13       33.8933
  14       35.9299
  15       37.9046
  16       39.8117
 
  0.1041667E+00  0.4166667E-01 -0.2758881E-17  0.2170139E-03
   1       -5.1966
   2        0.5829
   3        0.7351
   4        0.7370
   5        1.4244
   6        1.5022
   7       24.5550
   8       27.0473
   9       27.1752
  10       29.1399
  11       32.3365
  12       34.1010
  13       34.1461
  14       36.1025
  15       38.0638
  16       39.2123
 
  0.1250000E+00  0.4166667E-01  0.1756959E-17  0.2170139E-03
   1       -5.0469
   2        0.5551
   3        0.7567
   4        0.7608
   5        1.4110
   6        1.5033
   7       23.4778
   8       26.8584
   9       26.8773
  10       29.2739
  11       32.2458
  12       34.2761
  13       34.5692
  14       35.8929
  15       38.5994
  16       38.8260
 
  0.1458333E+00  0.4166667E-01 -0.1325290E-17  0.2170139E-03
   1       -4.8680
   2        0.5247
   3        0.7810
   4        0.7852
   5        1.4007
   6        1.5070
   7       22.3718
   8       26.5626
   9       26.7260
  10       29.3548
  11       32.1480
  12       34.4099
  13       35.0045
  14       35.5561
  15       38.0558
  16       39.7925
 
  0.1666667E+00  0.4166667E-01 -0.5517762E-17  0.2170139E-03
   1       -4.6610
   2        0.4931
   3        0.8040
   4        0.8080
   5        1.3959
   6        1.5146
   7       21.2625
   8       26.2886
   9       26.5779
  10       29.3674
  11       32.0058
  12       34.5520
  13       35.2940
  14       35.3135
  15       37.6819
  16       40.6703
 
  0.1875000E+00  0.4166667E-01 -0.1661118E-17  0.2170139E-03
   1       -4.4274
   2        0.4622
   3        0.8227
   4        0.8270
   5        1.3995
   6        1.5281
   7       20.1613
   8       26.0371
   9       26.4302
  10       29.3035
  11       31.8245
  12       34.5469
  13       35.3267
  14       35.3395
  15       37.6405
  16       41.3595
 
  0.2083333E+00  0.4166667E-01  0.2195527E-17  0.2170139E-03
   1       -4.1692
   2        0.4331
   3        0.8344
   4        0.8403
   5        1.4143
   6        1.5489
   7       19.0709
   8       25.8088
   9       26.2814
  10       29.1621
  11       31.6151
  12       34.3964
  13       35.0559
  14       35.6656
  15       37.9617
  16       41.9022
 
  0.2291667E+00  0.4166667E-01 -0.1996945E-17  0.2170139E-03
   1       -3.8892