Automatically generated mesh
    2769
Reciprocal lattice
    0.00000000000000    0.00000000000000    0.00000000000000             1
    0.02083333333333   -0.00000000000000   -0.00000000000000             8
    0.04166666666667   -0.00000000000000   -0.00000000000000             8
    0.06250000000000   -0.00000000000000   -0.00000000000000             8
    0.08333333333333   -0.00000000000000    0.00000000000000             8
    0.10416666666667   -0.00000000000000   -0.00000000000000             8
    0.12500000000000   -0.00000000000000   -0.00000000000000             8
    0.14583333333333   -0.00000000000000   -0.00000000000000             8
    0.16666666666667   -0.00000000000000   -0.00000000000000             8
    0.18750000000000   -0.00000000000000   -0.00000000000000             8
    0.20833333333333   -0.00000000000000    0.00000000000000             8
    0.22916666666667   -0.00000000000000   -0.00000000000000             8
    0.25000000000000   -0.00000000000000   -0.00000000000000             8
    0.27083333333333   -0.00000000000000   -0.00000000000000             8
    0.29166666666667   -0.00000000000000   -0.00000000000000             8
    0.31250000000000   -0.00000000000000   -0.00000000000000             8
    0.33333333333333   -0.00000000000000   -0.00000000000000             8
    0.35416666666667   -0.00000000000000   -0.00000000000000             8
    0.37500000000000   -0.00000000000000   -0.00000000000000             8
    0.39583333333333   -0.00000000000000   -0.00000000000000             8
    0.41666666666667   -0.00000000000000   -0.00000000000000             8
    0.43750000000000   -0.00000000000000   -0.00000000000000             8
    0.45833333333333    0.00000000000000    0.00000000000000             8
    0.47916666666667    0.00000000000000    0.00000000000000             8
    0.50000000000000   -0.00000000000000   -0.00000000000000             4
    0.02083333333333    0.02083333333333   -0.00000000000000             6
    0.04166666666667    0.02083333333333   -0.00000000000000            24
    0.06250000000000    0.02083333333333   -0.00000000000000            24
    0.08333333333333    0.02083333333333   -0.00000000000000            24
    0.10416666666667    0.02083333333333   -0.00000000000000            24
    0.12500000000000    0.02083333333333   -0.00000000000000            24
    0.14583333333333    0.02083333333333   -0.00000000000000            24
    0.16666666666667    0.02083333333333    0.00000000000000            24
    0.18750000000000    0.02083333333333   -0.00000000000000            24
    0.20833333333333    0.02083333333333   -0.00000000000000            24
    0.22916666666667    0.02083333333333   -0.00000000000000            24
    0.25000000000000    0.02083333333333   -0.00000000000000            24
    0.27083333333333    0.02083333333333   -0.00000000000000            24
    0.29166666666667    0.02083333333333   -0.00000000000000            24
    0.31250000000000    0.02083333333333   -0.00000000000000            24
    0.33333333333333    0.02083333333333   -0.00000000000000            24
    0.35416666666667    0.02083333333333   -0.00000000000000            24
    0.37500000000000    0.02083333333333   -0.00000000000000            24
    0.39583333333333    0.02083333333333   -0.00000000000000            24
    0.41666666666667    0.02083333333333   -0.00000000000000            24
    0.43750000000000    0.02083333333333   -0.00000000000000            24
    0.45833333333333    0.02083333333333   -0.00000000000000            24
    0.47916666666667    0.02083333333333   -0.00000000000000            24
    0.50000000000000    0.02083333333333    0.00000000000000            24
   -0.47916666666667    0.02083333333333    0.00000000000000            24
   -0.45833333333333    0.02083333333333   -0.00000000000000            24
   -0.43750000000000    0.02083333333333   -0.00000000000000            24
   -0.41666666666667    0.02083333333333    0.00000000000000            24
   -0.39583333333333    0.02083333333333   -0.00000000000000            24
   -0.37500000000000    0.02083333333333   -0.00000000000000            24
   -0.35416666666667    0.02083333333333    0.00000000000000            24
   -0.33333333333333    0.02083333333333   -0.00000000000000            24
   -0.31250000000000    0.02083333333333    0.00000000000000            24
   -0.29166666666667    0.02083333333333    0.00000000000000            24
   -0.27083333333333    0.02083333333333    0.00000000000000            24
   -0.25000000000000    0.02083333333333    0.00000000000000            24
   -0.22916666666667    0.02083333333333    0.00000000000000            24
   -0.20833333333333    0.02083333333333    0.00000000000000            24
   -0.18750000000000    0.02083333333333   -0.00000000000000            24
   -0.16666666666667    0.02083333333333    0.00000000000000            24
   -0.14583333333333    0.02083333333333   -0.00000000000000            24
   -0.12500000000000    0.02083333333333    0.00000000000000            24
   -0.10416666666667    0.02083333333333    0.00000000000000            24
   -0.08333333333333    0.02083333333333    0.00000000000000            24
   -0.06250000000000    0.02083333333333   -0.00000000000000            24
   -0.04166666666667    0.02083333333333    0.00000000000000            24
   -0.02083333333333    0.02083333333333    0.00000000000000            12
    0.04166666666667    0.04166666666667   -0.00000000000000             6
    0.06250000000000    0.04166666666667   -0.00000000000000            24
    0.08333333333333    0.04166666666667   -0.00000000000000            24
    0.10416666666667    0.04166666666667   -0.00000000000000            24
    0.12500000000000    0.04166666666667    0.00000000000000            24
    0.14583333333333    0.04166666666667   -0.00000000000000            24
    0.16666666666667    0.04166666666667   -0.00000000000000            24
    0.18750000000000    0.04166666666667   -0.00000000000000            24
    0.20833333333333    0.04166666666667    0.00000000000000            24
    0.22916666666667    0.04166666666667   -0.00000000000000            24
    0.25000000000000    0.04166666666667    0.00000000000000            24
    0.27083333333333    0.04166666666667   -0.00000000000000            24
    0.29166666666667    0.04166666666667   -0.00000000000000            24
    0.31250000000000    0.04166666666667   -0.00000000000000            24
    0.33333333333333    0.04166666666667   -0.00000000000000            24
    0.35416666666667    0.04166666666667   -0.00000000000000            24
    0.37500000000000    0.04166666666667   -0.00000000000000            24
    0.39583333333333    0.04166666666667    0.00000000000000            24
    0.41666666666667    0.04166666666667   -0.00000000000000            24
    0.43750000000000    0.04166666666667   -0.00000000000000            24
    0.45833333333333    0.04166666666667    0.00000000000000            24
    0.47916666666667    0.04166666666667   -0.00000000000000            24
    0.50000000000000    0.04166666666667    0.00000000000000            24
   -0.47916666666667    0.04166666666667    0.00000000000000            24
   -0.45833333333333    0.04166666666667    0.00000000000000            24
   -0.43750000000000    0.04166666666667   -0.00000000000000            24
   -0.41666666666667    0.04166666666667    0.00000000000000            24
   -0.39583333333333    0.04166666666667   -0.00000000000000            24
   -0.37500000000000    0.04166666666667    0.00000000000000            24
   -0.35416666666667    0.04166666666667    0.00000000000000            24
   -0.33333333333333    0.04166666666667    0.00000000000000            24
   -0.31250000000000    0.04166666666667    0.00000000000000            24
   -0.29166666666667    0.04166666666667    0.00000000000000            24
   -0.27083333333333    0.04166666666667    0.00000000000000            24
   -0.25000000000000    0.04166666666667    0.00000000000000            24
   -0.22916666666667    0.04166666666667   -0.00000000000000            24
   -0.20833333333333    0.04166666666667    0.00000000000000            24
   -0.18750000000000    0.04166666666667    0.00000000000000            24
   -0.16666666666667    0.04166666666667    0.00000000000000            24
   -0.14583333333333    0.04166666666667    0.00000000000000            24
   -0.12500000000000    0.04166666666667    0.00000000000000            24
   -0.10416666666667    0.04166666666667   -0.00000000000000            24
   -0.08333333333333    0.04166666666667    0.00000000000000            24
   -0.06250000000000    0.04166666666667    0.00000000000000            24
   -0.04166666666667    0.04166666666667    0.00000000000000            12
    0.06250000000000    0.06250000000000   -0.00000000000000             6
    0.08333333333333    0.06250000000000   -0.00000000000000            24
    0.10416666666667    0.06250000000000   -0.00000000000000            24
    0.12500000000000    0.06250000000000    0.00000000000000            24
    0.14583333333333    0.06250000000000    0.00000000000000            24
    0.16666666666667    0.06250000000000   -0.00000000000000            24
    0.18750000000000    0.06250000000000   -0.00000000000000            24
    0.20833333333333    0.06250000000000   -0.00000000000000            24
    0.22916666666667    0.06250000000000   -0.00000000000000            24
    0.25000000000000    0.06250000000000   -0.00000000000000            24
    0.27083333333333    0.06250000000000    0.00000000000000            24
    0.29166666666667    0.06250000000000   -0.00000000000000            24
    0.31250000000000    0.06250000000000   -0.00000000000000            24
    0.33333333333333    0.06250000000000   -0.00000000000000            24
    0.35416666666667    0.06250000000000   -0.00000000000000            24
    0.37500000000000    0.06250000000000   -0.00000000000000            24
    0.39583333333333    0.06250000000000   -0.00000000000000            24
    0.41666666666667    0.06250000000000   -0.00000000000000            24
    0.43750000000000    0.06250000000000   -0.00000000000000            24
    0.45833333333333    0.06250000000000   -0.00000000000000            24
    0.47916666666667    0.06250000000000   -0.00000000000000            24
    0.50000000000000    0.06250000000000    0.00000000000000            24
   -0.47916666666667    0.06250000000000    0.00000000000000            24
   -0.45833333333333    0.06250000000000    0.00000000000000            24
   -0.43750000000000    0.06250000000000    0.00000000000000            24
   -0.41666666666667    0.06250000000000   -0.00000000000000            24
   -0.39583333333333    0.06250000000000   -0.00000000000000            24
   -0.37500000000000    0.06250000000000    0.00000000000000            24
   -0.35416666666667    0.06250000000000    0.00000000000000            24
   -0.33333333333333    0.06250000000000    0.00000000000000            24
   -0.31250000000000    0.06250000000000    0.00000000000000            24
   -0.29166666666667    0.06250000000000    0.00000000000000            24
   -0.27083333333333    0.06250000000000    0.00000000000000            24
   -0.25000000000000    0.06250000000000    0.00000000000000            24
   -0.22916666666667    0.06250000000000    0.00000000000000            24
   -0.20833333333333    0.06250000000000    0.00000000000000            24
   -0.18750000000000    0.06250000000000    0.00000000000000            24
   -0.16666666666667    0.06250000000000    0.00000000000000            24
   -0.14583333333333    0.06250000000000   -0.00000000000000            24
   -0.12500000000000    0.06250000000000    0.00000000000000            24
   -0.10416666666667    0.06250000000000    0.00000000000000            24
   -0.08333333333333    0.06250000000000    0.00000000000000            24
   -0.06250000000000    0.06250000000000    0.00000000000000            12
    0.08333333333333    0.08333333333333   -0.00000000000000             6
    0.10416666666667    0.08333333333333   -0.00000000000000            24
    0.12500000000000    0.08333333333333   -0.00000000000000            24
    0.14583333333333    0.08333333333333   -0.00000000000000            24
    0.16666666666667    0.08333333333333   -0.00000000000000            24
    0.18750000000000    0.08333333333333   -0.00000000000000            24
    0.20833333333333    0.08333333333333   -0.00000000000000            24
    0.22916666666667    0.08333333333333    0.00000000000000            24
    0.25000000000000    0.08333333333333   -0.00000000000000            24
    0.27083333333333    0.08333333333333   -0.00000000000000            24
    0.29166666666667    0.08333333333333   -0.00000000000000            24
    0.31250000000000    0.08333333333333   -0.00000000000000            24
    0.33333333333333    0.08333333333333   -0.00000000000000            24
    0.35416666666667    0.08333333333333   -0.00000000000000            24
    0.37500000000000    0.08333333333333   -0.00000000000000            24
    0.39583333333333    0.08333333333333   -0.00000000000000            24
    0.41666666666667    0.08333333333333   -0.00000000000000            24
    0.43750000000000    0.08333333333333   -0.00000000000000            24
    0.45833333333333    0.08333333333333   -0.00000000000000            24
    0.47916666666667    0.08333333333333   -0.00000000000000            24
    0.50000000000000    0.08333333333333   -0.00000000000000            24
   -0.47916666666667    0.08333333333333    0.00000000000000            24
   -0.45833333333333    0.08333333333333    0.00000000000000            24
   -0.43750000000000    0.08333333333333    0.00000000000000            24
   -0.41666666666667    0.08333333333333    0.00000000000000            24
   -0.39583333333333    0.08333333333333   -0.00000000000000            24
   -0.37500000000000    0.08333333333333   -0.00000000000000            24
   -0.35416666666667    0.08333333333333    0.00000000000000            24
   -0.33333333333333    0.08333333333333   -0.00000000000000            24
   -0.31250000000000    0.08333333333333    0.00000000000000            24
   -0.29166666666667    0.08333333333333    0.00000000000000            24
   -0.27083333333333    0.08333333333333   -0.00000000000000            24
   -0.25000000000000    0.08333333333333    0.00000000000000            24
   -0.22916666666667    0.08333333333333    0.00000000000000            24
   -0.20833333333333    0.08333333333333    0.00000000000000            24
   -0.18750000000000    0.08333333333333    0.00000000000000            24
   -0.16666666666667    0.08333333333333    0.00000000000000            24
   -0.14583333333333    0.08333333333333    0.00000000000000            24
   -0.12500000000000    0.08333333333333   -0.00000000000000            24
   -0.10416666666667    0.08333333333333    0.00000000000000            24
   -0.08333333333333    0.08333333333333   -0.00000000000000            12
    0.10416666666667    0.10416666666667   -0.00000000000000             6
    0.12500000000000    0.10416666666667   -0.00000000000000            24
    0.14583333333333    0.10416666666667   -0.00000000000000            24
    0.16666666666667    0.10416666666667   -0.00000000000000            24
    0.18750000000000    0.10416666666667    0.00000000000000            24
    0.20833333333333    0.10416666666667   -0.00000000000000            24
    0.22916666666667    0.10416666666667   -0.00000000000000            24
    0.25000000000000    0.10416666666667   -0.00000000000000            24
    0.27083333333333    0.10416666666667    0.00000000000000            24
    0.29166666666667    0.10416666666667   -0.00000000000000            24
    0.31250000000000    0.10416666666667    0.00000000000000            24
    0.33333333333333    0.10416666666667   -0.00000000000000            24
    0.35416666666667    0.10416666666667   -0.00000000000000            24
    0.37500000000000    0.10416666666667   -0.00000000000000            24
    0.39583333333333    0.10416666666667   -0.00000000000000            24
    0.41666666666667    0.10416666666667   -0.00000000000000            24
    0.43750000000000    0.10416666666667   -0.00000000000000            24
    0.45833333333333    0.10416666666667    0.00000000000000            24
    0.47916666666667    0.10416666666667   -0.00000000000000            24
    0.50000000000000    0.10416666666667   -0.00000000000000            24
   -0.47916666666667    0.10416666666667    0.00000000000000            24
   -0.45833333333333    0.10416666666667    0.00000000000000            24
   -0.43750000000000    0.10416666666667    0.00000000000000            24
   -0.41666666666667    0.10416666666667    0.00000000000000            24
   -0.39583333333333    0.10416666666667    0.00000000000000            24
   -0.37500000000000    0.10416666666667   -0.00000000000000            24
   -0.35416666666667    0.10416666666667    0.00000000000000            24
   -0.33333333333333    0.10416666666667    0.00000000000000            24
   -0.31250000000000    0.10416666666667    0.00000000000000            24
   -0.29166666666667    0.10416666666667    0.00000000000000            24
   -0.27083333333333    0.10416666666667    0.00000000000000            24
   -0.25000000000000    0.10416666666667    0.00000000000000            24
   -0.22916666666667    0.10416666666667    0.00000000000000            24
   -0.20833333333333    0.10416666666667    0.00000000000000            24
   -0.18750000000000    0.10416666666667    0.00000000000000            24
   -0.16666666666667    0.10416666666667   -0.00000000000000            24
   -0.14583333333333    0.10416666666667    0.00000000000000            24
   -0.12500000000000    0.10416666666667    0.00000000000000            24
   -0.10416666666667    0.10416666666667    0.00000000000000            12
    0.12500000000000    0.12500000000000   -0.00000000000000             6
    0.14583333333333    0.12500000000000   -0.00000000000000            24
    0.16666666666667    0.12500000000000   -0.00000000000000            24
    0.18750000000000    0.12500000000000   -0.00000000000000            24
    0.20833333333333    0.12500000000000   -0.00000000000000            24
    0.22916666666667    0.12500000000000   -0.00000000000000            24
    0.25000000000000    0.12500000000000    0.00000000000000            24
    0.27083333333333    0.12500000000000   -0.00000000000000            24
    0.29166666666667    0.12500000000000   -0.00000000000000            24
    0.31250000000000    0.12500000000000   -0.00000000000000            24
    0.33333333333333    0.12500000000000    0.00000000000000            24
    0.35416666666667    0.12500000000000   -0.00000000000000            24
    0.37500000000000    0.12500000000000   -0.00000000000000            24
    0.39583333333333    0.12500000000000   -0.00000000000000            24
    0.41666666666667    0.12500000000000   -0.00000000000000            24
    0.43750000000000    0.12500000000000   -0.00000000000000            24
    0.45833333333333    0.12500000000000   -0.00000000000000            24
    0.47916666666667    0.12500000000000   -0.00000000000000            24
    0.50000000000000    0.12500000000000   -0.00000000000000            24
   -0.47916666666667    0.12500000000000    0.00000000000000            24
   -0.45833333333333    0.12500000000000    0.00000000000000            24
   -0.43750000000000    0.12500000000000    0.00000000000000            24
   -0.41666666666667    0.12500000000000    0.00000000000000            24
   -0.39583333333333    0.12500000000000    0.00000000000000            24
   -0.37500000000000    0.12500000000000    0.00000000000000            24
   -0.35416666666667    0.12500000000000   -0.00000000000000            24
   -0.33333333333333    0.12500000000000   -0.00000000000000            24
   -0.31250000000000    0.12500000000000    0.00000000000000            24
   -0.29166666666667    0.12500000000000    0.00000000000000            24
   -0.27083333333333    0.12500000000000    0.00000000000000            24
   -0.25000000000000    0.12500000000000    0.00000000000000            24
   -0.22916666666667    0.12500000000000    0.00000000000000            24
   -0.20833333333333    0.12500000000000    0.00000000000000            24
   -0.18750000000000    0.12500000000000    0.00000000000000            24
   -0.16666666666667    0.12500000000000    0.00000000000000            24
   -0.14583333333333    0.12500000000000    0.00000000000000            24
   -0.12500000000000    0.12500000000000    0.00000000000000            12
    0.14583333333333    0.14583333333333   -0.00000000000000             6
    0.16666666666667    0.14583333333333   -0.00000000000000            24
    0.18750000000000    0.14583333333333   -0.00000000000000            24
    0.20833333333333    0.14583333333333   -0.00000000000000            24
    0.22916666666667    0.14583333333333   -0.00000000000000            24
    0.25000000000000    0.14583333333333   -0.00000000000000            24
    0.27083333333333    0.14583333333333   -0.00000000000000            24
    0.29166666666667    0.14583333333333   -0.00000000000000            24
    0.31250000000000    0.14583333333333   -0.00000000000000            24
    0.33333333333333    0.14583333333333   -0.00000000000000            24
    0.35416666666667    0.14583333333333   -0.00000000000000            24
    0.37500000000000    0.14583333333333   -0.00000000000000            24
    0.39583333333333    0.14583333333333   -0.00000000000000            24
    0.41666666666667    0.14583333333333   -0.00000000000000            24
    0.43750000000000    0.14583333333333   -0.00000000000000            24
    0.45833333333333    0.14583333333333   -0.00000000000000            24
    0.47916666666667    0.14583333333333   -0.00000000000000            24
    0.50000000000000    0.14583333333333   -0.00000000000000            24
   -0.47916666666667    0.14583333333333    0.00000000000000            24
   -0.45833333333333    0.14583333333333    0.00000000000000            24
   -0.43750000000000    0.14583333333333    0.00000000000000            24
   -0.41666666666667    0.14583333333333    0.00000000000000            24
   -0.39583333333333    0.14583333333333    0.00000000000000            24
   -0.37500000000000    0.14583333333333    0.00000000000000            24
   -0.35416666666667    0.14583333333333   -0.00000000000000            24
   -0.33333333333333    0.14583333333333   -0.00000000000000            24
   -0.31250000000000    0.14583333333333   -0.00000000000000            24
   -0.29166666666667    0.14583333333333    0.00000000000000            24
   -0.27083333333333    0.14583333333333   -0.00000000000000            24
   -0.25000000000000    0.14583333333333    0.00000000000000            24
   -0.22916666666667    0.14583333333333    0.00000000000000            24
   -0.20833333333333    0.14583333333333   -0.00000000000000            24
   -0.18750000000000    0.14583333333333    0.00000000000000            24
   -0.16666666666667    0.14583333333333    0.00000000000000            24
   -0.14583333333333    0.14583333333333    0.00000000000000            12
    0.16666666666667    0.16666666666667   -0.00000000000000             6
    0.18750000000000    0.16666666666667   -0.00000000000000            24
    0.20833333333333    0.16666666666667   -0.00000000000000            24
    0.22916666666667    0.16666666666667   -0.00000000000000            24
    0.25000000000000    0.16666666666667   -0.00000000000000            24
    0.27083333333333    0.16666666666667   -0.00000000000000            24
    0.29166666666667    0.16666666666667   -0.00000000000000            24
    0.31250000000000    0.16666666666667   -0.00000000000000            24
    0.33333333333333    0.16666666666667    0.00000000000000            24
    0.35416666666667    0.16666666666667   -0.00000000000000            24
    0.37500000000000    0.16666666666667    0.00000000000000            24
    0.39583333333333    0.16666666666667   -0.00000000000000            24
    0.41666666666667    0.16666666666667   -0.00000000000000            24
    0.43750000000000    0.16666666666667   -0.00000000000000            24
    0.45833333333333    0.16666666666667   -0.00000000000000            24
    0.47916666666667    0.16666666666667   -0.00000000000000            24
    0.50000000000000    0.16666666666667   -0.00000000000000            24
   -0.47916666666667    0.16666666666667    0.00000000000000            24
   -0.45833333333333    0.16666666666667    0.00000000000000            24
   -0.43750000000000    0.16666666666667    0.00000000000000            24
   -0.41666666666667    0.16666666666667    0.00000000000000            24
   -0.39583333333333    0.16666666666667    0.00000000000000            24
   -0.37500000000000    0.16666666666667    0.00000000000000            24
   -0.35416666666667    0.16666666666667    0.00000000000000            24
   -0.33333333333333    0.16666666666667    0.00000000000000            24
   -0.31250000000000    0.16666666666667   -0.00000000000000            24
   -0.29166666666667    0.16666666666667    0.00000000000000            24
   -0.27083333333333    0.16666666666667    0.00000000000000            24
   -0.25000000000000    0.16666666666667    0.00000000000000            24
   -0.22916666666667    0.16666666666667    0.00000000000000            24
   -0.20833333333333    0.16666666666667    0.00000000000000            24
   -0.18750000000000    0.16666666666667    0.00000000000000            24
   -0.16666666666667    0.16666666666667    0.00000000000000            12
    0.18750000000000    0.18750000000000   -0.00000000000000             6
    0.20833333333333    0.18750000000000   -0.00000000000000            24
    0.22916666666667    0.18750000000000   -0.00000000000000            24
    0.25000000000000    0.18750000000000   -0.00000000000000            24
    0.27083333333333    0.18750000000000   -0.00000000000000            24
    0.29166666666667    0.18750000000000   -0.00000000000000            24
    0.31250000000000    0.18750000000000   -0.00000000000000            24
    0.33333333333333    0.18750000000000   -0.00000000000000            24
    0.35416666666667    0.18750000000000   -0.00000000000000            24
    0.37500000000000    0.18750000000000   -0.00000000000000            24
    0.39583333333333    0.18750000000000   -0.00000000000000            24
    0.41666666666667    0.18750000000000   -0.00000000000000            24
    0.43750000000000    0.18750000000000   -0.00000000000000            24
    0.45833333333333    0.18750000000000   -0.00000000000000            24
    0.47916666666667    0.18750000000000   -0.00000000000000            24
    0.50000000000000    0.18750000000000   -0.00000000000000            24
   -0.47916666666667    0.18750000000000    0.00000000000000            24
   -0.45833333333333    0.18750000000000    0.00000000000000            24
   -0.43750000000000    0.18750000000000    0.00000000000000            24
   -0.41666666666667    0.18750000000000    0.00000000000000            24
   -0.39583333333333    0.18750000000000    0.00000000000000            24
   -0.37500000000000    0.18750000000000    0.00000000000000            24
   -0.35416666666667    0.18750000000000    0.00000000000000            24
   -0.33333333333333    0.18750000000000    0.00000000000000            24
   -0.31250000000000    0.18750000000000    0.00000000000000            24
   -0.29166666666667    0.18750000000000   -0.00000000000000            24
   -0.27083333333333    0.18750000000000   -0.00000000000000            24
   -0.25000000000000    0.18750000000000    0.00000000000000            24
   -0.22916666666667    0.18750000000000    0.00000000000000            24
   -0.20833333333333    0.18750000000000    0.00000000000000            24
   -0.18750000000000    0.18750000000000    0.00000000000000            12
    0.20833333333333    0.20833333333333   -0.00000000000000             6
    0.22916666666667    0.20833333333333   -0.00000000000000            24
    0.25000000000000    0.20833333333333   -0.00000000000000            24
    0.27083333333333    0.20833333333333   -0.00000000000000            24
    0.29166666666667    0.20833333333333   -0.00000000000000            24
    0.31250000000000    0.20833333333333   -0.00000000000000            24
    0.33333333333333    0.20833333333333   -0.00000000000000            24
    0.35416666666667    0.20833333333333   -0.00000000000000            24
    0.37500000000000    0.20833333333333   -0.00000000000000            24
    0.39583333333333    0.20833333333333   -0.00000000000000            24
    0.41666666666667    0.20833333333333   -0.00000000000000            24
    0.43750000000000    0.20833333333333   -0.00000000000000            24
    0.45833333333333    0.20833333333333   -0.00000000000000            24
    0.47916666666667    0.20833333333333   -0.00000000000000            24
    0.50000000000000    0.20833333333333   -0.00000000000000            24
   -0.47916666666667    0.20833333333333    0.00000000000000            24
   -0.45833333333333    0.20833333333333    0.00000000000000            24
   -0.43750000000000    0.20833333333333    0.00000000000000            24
   -0.41666666666667    0.20833333333333    0.00000000000000            24
   -0.39583333333333    0.20833333333333    0.00000000000000            24
   -0.37500000000000    0.20833333333333    0.00000000000000            24
   -0.35416666666667    0.20833333333333    0.00000000000000            24
   -0.33333333333333    0.20833333333333    0.00000000000000            24