 vasp.4.6.28 25Jul05 complex 
 executed on             LinuxIFC date 2019.02.03  18:59:57
 running on    8 nodes
 distr:  one band on    1 nodes,    8 groups


--------------------------------------------------------------------------------------------------------


 INCAR:
 POTCAR:   PAW_GGA Cu 05Jan2001                   
 POTCAR:   PAW_GGA Cu 05Jan2001                   
   VRHFIN =Cu: d10 p1                                                           
   LEXCH  = 91                                                                  
   EATOM  =  1393.0707 eV,  102.3878 Ry                                         
                                                                                
   TITEL  = PAW_GGA Cu 05Jan2001                                                
   LULTRA =        F    use ultrasoft PP ?                                      
   IUNSCR =        1    unscreen: 0-lin 1-nonlin 2-no                           
   RPACOR =    2.000    partial core radius                                     
   POMASS =   63.546; ZVAL   =   11.000    mass and valenz                      
   RCORE  =    2.300    outmost cutoff radius                                   
   RWIGS  =    2.480; RWIGS  =    1.312    wigner-seitz radius (au A)           
   ENMAX  =  273.246; ENMIN  =  204.934 eV                                      
   RCLOC  =    1.712    cutoff for local pot                                    
   LCOR   =        T    correct aug charges                                     
   LPAW   =        T    paw PP                                                  
   EAUG   =  516.456                                                            
   DEXC   =    -.002                                                            
   RMAX   =    2.789    core radius for proj-oper                               
   RAUG   =    1.300    factor for augmentation sphere                          
   RDEP   =    2.302    core radius for depl-charge                             
   QCUT   =   -4.481; QGAM   =    8.963    optimization parameters              
                                                                                
   Description                                                                  
     l     E      TYP  RCUT    TYP  RCUT                                        
     2   .000     23  2.300                                                     
     2   .000     23  2.300                                                     
     0   .000     23  2.300                                                     
     0   .000     23  2.300                                                     
     1  -.200     23  2.300                                                     
     1   .000     23  2.300                                                     
     3   .000      7   .000                                                     
  local pseudopotential read in
  partial core-charges read in
  atomic valenz-charges read in
  non local Contribution for L=           2  read in
    real space projection operators read in
  non local Contribution for L=           2  read in
    real space projection operators read in
  non local Contribution for L=           0  read in
    real space projection operators read in
  non local Contribution for L=           0  read in
    real space projection operators read in
  non local Contribution for L=           1  read in
    real space projection operators read in
  non local Contribution for L=           1  read in
    real space projection operators read in
    PAW grid and wavefunctions read in
 
   number of l-projection  operators is LMAX  =           6
   number of lm-projection operators is LMMAX =          18
 
 PAW_GGA Cu 05Jan2001                   :
 energy of atom  1       EATOM=-1393.0707
 kinetic energy error for atom=    0.0395 (will be added to EATOM!!)
 
 EXHCAR: internal setup
 exchange correlation table for  LEXCH =        7
   RHO(1)=    0.500       N(1)  =     2000
   RHO(2)=  100.500       N(2)  =     4000
 
 POSCAR: Cu metal rhomboedrique                  
  positions in direct lattice
  No initial velocities read in
 


--------------------------------------------------------------------------------------------------------


 ion  position               nearest neighbor table
   1  0.000  0.000  0.000-
 
  LATTYP: Found a face centered cubic cell.
 ALAT       =     3.6200000000
  
  Lattice vectors:
  
 A1 = (   1.8100000000,   1.8100000000,   0.0000000000)
 A2 = (   0.0000000000,   1.8100000000,   1.8100000000)
 A3 = (   1.8100000000,   0.0000000000,   1.8100000000)
 Subroutine PRICEL returns:
 Original cell was already a primitive cell.
 

Analysis of symmetry for initial positions (statically):

 Routine SETGRP: Setting up the symmetry group for a 
 face centered cubic supercell.


 Subroutine GETGRP returns: Found 48 space group operations
 (whereof 48 operations were pure point group operations)
 out of a pool of 48 trial point group operations.


The static configuration has the point symmetry O_h .

Analysis of symmetry for dynamics (positions and initial velocities):

 Subroutine DYNSYM returns: Found 48 space group operations
 (whereof 48 operations were pure point group operations)
 out of a pool of 48 trial space group operations
 (whereof 48 operations were pure point group operations)
 and found also     1 'primitive' translations


The dynamic configuration has the point symmetry O_h .
 
 
 KPOINTS: Automatic mesh                          

Automatic generation of k-mesh.
 generate k-points for:  48  48  48
 
 Subroutine IBZKPT returns following result:
 ===========================================
 
 Found   2769 irreducible k-points:
 
 Following reciprocal coordinates:
            Coordinates               Weight
  0.000000  0.000000  0.000000      1.000000
  0.020833 -0.000000 -0.000000      8.000000
  0.041667 -0.000000 -0.000000      8.000000
  0.062500 -0.000000 -0.000000      8.000000
  0.083333 -0.000000  0.000000      8.000000
  0.104167 -0.000000 -0.000000      8.000000
  0.125000 -0.000000 -0.000000      8.000000
  0.145833 -0.000000 -0.000000      8.000000
  0.166667 -0.000000 -0.000000      8.000000
  0.187500 -0.000000 -0.000000      8.000000
  0.208333 -0.000000  0.000000      8.000000
  0.229167 -0.000000 -0.000000      8.000000
  0.250000 -0.000000 -0.000000      8.000000
  0.270833 -0.000000 -0.000000      8.000000
  0.291667 -0.000000 -0.000000      8.000000
  0.312500 -0.000000 -0.000000      8.000000
  0.333333 -0.000000 -0.000000      8.000000
  0.354167 -0.000000 -0.000000      8.000000
  0.375000 -0.000000 -0.000000      8.000000
  0.395833 -0.000000 -0.000000      8.000000
  0.416667 -0.000000 -0.000000      8.000000
  0.437500 -0.000000 -0.000000      8.000000
  0.458333  0.000000  0.000000      8.000000
  0.479167  0.000000  0.000000      8.000000
  0.500000 -0.000000 -0.000000      4.000000
  0.020833  0.020833 -0.000000      6.000000
  0.041667  0.020833 -0.000000     24.000000
  0.062500  0.020833 -0.000000     24.000000
  0.083333  0.020833 -0.000000     24.000000
  0.104167  0.020833 -0.000000     24.000000
  0.125000  0.020833 -0.000000     24.000000
  0.145833  0.020833 -0.000000     24.000000
  0.166667  0.020833  0.000000     24.000000
  0.187500  0.020833 -0.000000     24.000000
  0.208333  0.020833 -0.000000     24.000000
  0.229167  0.020833 -0.000000     24.000000
  0.250000  0.020833 -0.000000     24.000000
  0.270833  0.020833 -0.000000     24.000000
  0.291667  0.020833 -0.000000     24.000000
  0.312500  0.020833 -0.000000     24.000000
  0.333333  0.020833 -0.000000     24.000000
  0.354167  0.020833 -0.000000     24.000000
  0.375000  0.020833 -0.000000     24.000000
  0.395833  0.020833 -0.000000     24.000000
  0.416667  0.020833 -0.000000     24.000000
  0.437500  0.020833 -0.000000     24.000000
  0.458333  0.020833 -0.000000     24.000000
  0.479167  0.020833 -0.000000     24.000000
  0.500000  0.020833  0.000000     24.000000
 -0.479167  0.020833  0.000000     24.000000
 -0.458333  0.020833 -0.000000     24.000000
 -0.437500  0.020833 -0.000000     24.000000
 -0.416667  0.020833  0.000000     24.000000
 -0.395833  0.020833 -0.000000     24.000000
 -0.375000  0.020833 -0.000000     24.000000
 -0.354167  0.020833  0.000000     24.000000
 -0.333333  0.020833 -0.000000     24.000000
 -0.312500  0.020833  0.000000     24.000000
 -0.291667  0.020833  0.000000     24.000000
 -0.270833  0.020833  0.000000     24.000000
 -0.250000  0.020833  0.000000     24.000000
 -0.229167  0.020833  0.000000     24.000000
 -0.208333  0.020833  0.000000     24.000000
 -0.187500  0.020833 -0.000000     24.000000
 -0.166667  0.020833  0.000000     24.000000
 -0.145833  0.020833 -0.000000     24.000000
 -0.125000  0.020833  0.000000     24.000000
 -0.104167  0.020833  0.000000     24.000000
 -0.083333  0.020833  0.000000     24.000000
 -0.062500  0.020833 -0.000000     24.000000
 -0.041667  0.020833  0.000000     24.000000
 -0.020833  0.020833  0.000000     12.000000
  0.041667  0.041667 -0.000000      6.000000
  0.062500  0.041667 -0.000000     24.000000
  0.083333  0.041667 -0.000000     24.000000
  0.104167  0.041667 -0.000000     24.000000
  0.125000  0.041667  0.000000     24.000000
  0.145833  0.041667 -0.000000     24.000000
  0.166667  0.041667 -0.000000     24.000000
  0.187500  0.041667 -0.000000     24.000000
  0.208333  0.041667  0.000000     24.000000
  0.229167  0.041667 -0.000000     24.000000
  0.250000  0.041667  0.000000     24.000000
  0.270833  0.041667 -0.000000     24.000000
  0.291667  0.041667 -0.000000     24.000000
  0.312500  0.041667 -0.000000     24.000000
  0.333333  0.041667 -0.000000     24.000000
  0.354167  0.041667 -0.000000     24.000000
  0.375000  0.041667 -0.000000     24.000000
  0.395833  0.041667  0.000000     24.000000
  0.416667  0.041667 -0.000000     24.000000
  0.437500  0.041667 -0.000000     24.000000
  0.458333  0.041667  0.000000     24.000000
  0.479167  0.041667 -0.000000     24.000000
  0.500000  0.041667  0.000000     24.000000
 -0.479167  0.041667  0.000000     24.000000
 -0.458333  0.041667  0.000000     24.000000
 -0.437500  0.041667 -0.000000     24.000000
 -0.416667  0.041667  0.000000     24.000000
 -0.395833  0.041667 -0.000000     24.000000
 -0.375000  0.041667  0.000000     24.000000
 -0.354167  0.041667  0.000000     24.000000
 -0.333333  0.041667  0.000000     24.000000
 -0.312500  0.041667  0.000000     24.000000
 -0.291667  0.041667  0.000000     24.000000
 -0.270833  0.041667  0.000000     24.000000
 -0.250000  0.041667  0.000000     24.000000
 -0.229167  0.041667 -0.000000     24.000000
 -0.208333  0.041667  0.000000     24.000000
 -0.187500  0.041667  0.000000     24.000000
 -0.166667  0.041667  0.000000     24.000000
 -0.145833  0.041667  0.000000     24.000000
 -0.125000  0.041667  0.000000     24.000000
 -0.104167  0.041667 -0.000000     24.000000
 -0.083333  0.041667  0.000000     24.000000
 -0.062500  0.041667  0.000000     24.000000
 -0.041667  0.041667  0.000000     12.000000
  0.062500  0.062500 -0.000000      6.000000
  0.083333  0.062500 -0.000000     24.000000
  0.104167  0.062500 -0.000000     24.000000
  0.125000  0.062500  0.000000     24.000000
  0.145833  0.062500  0.000000     24.000000
  0.166667  0.062500 -0.000000     24.000000
  0.187500  0.062500 -0.000000     24.000000
  0.208333  0.062500 -0.000000     24.000000
  0.229167  0.062500 -0.000000     24.000000
  0.250000  0.062500 -0.000000     24.000000
  0.270833  0.062500  0.000000     24.000000
  0.291667  0.062500 -0.000000     24.000000
  0.312500  0.062500 -0.000000     24.000000
  0.333333  0.062500 -0.000000     24.000000
  0.354167  0.062500 -0.000000     24.000000
  0.375000  0.062500 -0.000000     24.000000
  0.395833  0.062500 -0.000000     24.000000
  0.416667  0.062500 -0.000000     24.000000
  0.437500  0.062500 -0.000000     24.000000
  0.458333  0.062500 -0.000000     24.000000
  0.479167  0.062500 -0.000000     24.000000
  0.500000  0.062500  0.000000     24.000000
 -0.479167  0.062500  0.000000     24.000000
 -0.458333  0.062500  0.000000     24.000000
 -0.437500  0.062500  0.000000     24.000000
 -0.416667  0.062500 -0.000000     24.000000
 -0.395833  0.062500 -0.000000     24.000000
 -0.375000  0.062500  0.000000     24.000000
 -0.354167  0.062500  0.000000     24.000000
 -0.333333  0.062500  0.000000     24.000000
 -0.312500  0.062500  0.000000     24.000000
 -0.291667  0.062500  0.000000     24.000000
 -0.270833  0.062500  0.000000     24.000000
 -0.250000  0.062500  0.000000     24.000000
 -0.229167  0.062500  0.000000     24.000000
 -0.208333  0.062500  0.000000     24.000000
 -0.187500  0.062500  0.000000     24.000000
 -0.166667  0.062500  0.000000     24.000000
 -0.145833  0.062500 -0.000000     24.000000
 -0.125000  0.062500  0.000000     24.000000
 -0.104167  0.062500  0.000000     24.000000
 -0.083333  0.062500  0.000000     24.000000
 -0.062500  0.062500  0.000000     12.000000
  0.083333  0.083333 -0.000000      6.000000
  0.104167  0.083333 -0.000000     24.000000
  0.125000  0.083333 -0.000000     24.000000
  0.145833  0.083333 -0.000000     24.000000
  0.166667  0.083333 -0.000000     24.000000
  0.187500  0.083333 -0.000000     24.000000
  0.208333  0.083333 -0.000000     24.000000
  0.229167  0.083333  0.000000     24.000000
  0.250000  0.083333 -0.000000     24.000000
  0.270833  0.083333 -0.000000     24.000000
  0.291667  0.083333 -0.000000     24.000000
  0.312500  0.083333 -0.000000     24.000000
  0.333333  0.083333 -0.000000     24.000000
  0.354167  0.083333 -0.000000     24.000000
  0.375000  0.083333 -0.000000     24.000000
  0.395833  0.083333 -0.000000     24.000000
  0.416667  0.083333 -0.000000     24.000000
  0.437500  0.083333 -0.000000     24.000000
  0.458333  0.083333 -0.000000     24.000000
  0.479167  0.083333 -0.000000     24.000000
  0.500000  0.083333 -0.000000     24.000000
 -0.479167  0.083333  0.000000     24.000000
 -0.458333  0.083333  0.000000     24.000000
 -0.437500  0.083333  0.000000     24.000000
 -0.416667  0.083333  0.000000     24.000000
 -0.395833  0.083333 -0.000000     24.000000
 -0.375000  0.083333 -0.000000     24.000000
 -0.354167  0.083333  0.000000     24.000000
 -0.333333  0.083333 -0.000000     24.000000
 -0.312500  0.083333  0.000000     24.000000
 -0.291667  0.083333  0.000000     24.000000
 -0.270833  0.083333 -0.000000     24.000000
 -0.250000  0.083333  0.000000     24.000000
 -0.229167  0.083333  0.000000     24.000000
 -0.208333  0.083333  0.000000     24.000000
 -0.187500  0.083333  0.000000     24.000000
 -0.166667  0.083333  0.000000     24.000000
 -0.145833  0.083333  0.000000     24.000000
 -0.125000  0.083333 -0.000000     24.000000
 -0.104167  0.083333  0.000000     24.000000
 -0.083333  0.083333 -0.000000     12.000000
  0.104167  0.104167 -0.000000      6.000000
  0.125000  0.104167 -0.000000     24.000000
  0.145833  0.104167 -0.000000     24.000000
  0.166667  0.104167 -0.000000     24.000000
  0.187500  0.104167  0.000000     24.000000
  0.208333  0.104167 -0.000000     24.000000
  0.229167  0.104167 -0.000000     24.000000
  0.250000  0.104167 -0.000000     24.000000
  0.270833  0.104167  0.000000     24.000000
  0.291667  0.104167 -0.000000     24.000000
  0.312500  0.104167  0.000000     24.000000
  0.333333  0.104167 -0.000000     24.000000
  0.354167  0.104167 -0.000000     24.000000
  0.375000  0.104167 -0.000000     24.000000
  0.395833  0.104167 -0.000000     24.000000
  0.416667  0.104167 -0.000000     24.000000
  0.437500  0.104167 -0.000000     24.000000
  0.458333  0.104167  0.000000     24.000000
  0.479167  0.104167 -0.000000     24.000000
  0.500000  0.104167 -0.000000     24.000000
 -0.479167  0.104167  0.000000     24.000000
 -0.458333  0.104167  0.000000     24.000000
 -0.437500  0.104167  0.000000     24.000000
 -0.416667  0.104167  0.000000     24.000000
 -0.395833  0.104167  0.000000     24.000000
 -0.375000  0.104167 -0.000000     24.000000
 -0.354167  0.104167  0.000000     24.000000
 -0.333333  0.104167  0.000000     24.000000
 -0.312500  0.104167  0.000000     24.000000
 -0.291667  0.104167  0.000000     24.000000
 -0.270833  0.104167  0.000000     24.000000
 -0.250000  0.104167  0.000000     24.000000
 -0.229167  0.104167  0.000000     24.000000
 -0.208333  0.104167  0.000000     24.000000
 -0.187500  0.104167  0.000000     24.000000
 -0.166667  0.104167 -0.000000     24.000000
 -0.145833  0.104167  0.000000     24.000000
 -0.125000  0.104167  0.000000     24.000000
 -0.104167  0.104167  0.000000     12.000000
  0.125000  0.125000 -0.000000      6.000000
  0.145833  0.125000 -0.000000     24.000000
  0.166667  0.125000 -0.000000     24.000000
  0.187500  0.125000 -0.000000     24.000000
  0.208333  0.125000 -0.000000     24.000000
  0.229167  0.125000 -0.000000     24.000000
  0.250000  0.125000  0.000000     24.000000
  0.270833  0.125000 -0.000000     24.000000
  0.291667  0.125000 -0.000000     24.000000
  0.312500  0.125000 -0.000000     24.000000
  0.333333  0.125000  0.000000     24.000000
  0.354167  0.125000 -0.000000     24.000000
  0.375000  0.125000 -0.000000     24.000000
  0.395833  0.125000 -0.000000     24.000000
  0.416667  0.125000 -0.000000     24.000000
  0.437500  0.125000 -0.000000     24.000000
  0.458333  0.125000 -0.000000     24.000000
  0.479167  0.125000 -0.000000     24.000000
  0.500000  0.125000 -0.000000     24.000000
 -0.479167  0.125000  0.000000     24.000000
 -0.458333  0.125000  0.000000     24.000000
 -0.437500  0.125000  0.000000     24.000000
 -0.416667  0.125000  0.000000     24.000000
 -0.395833  0.125000  0.000000     24.000000
 -0.375000  0.125000  0.000000     24.000000
 -0.354167  0.125000 -0.000000     24.000000
 -0.333333  0.125000 -0.000000     24.000000
 -0.312500  0.125000  0.000000     24.000000
 -0.291667  0.125000  0.000000     24.000000
 -0.270833  0.125000  0.000000     24.000000
 -0.250000  0.125000  0.000000     24.000000
 -0.229167  0.125000  0.000000     24.000000
 -0.208333  0.125000  0.000000     24.000000
 -0.187500  0.125000  0.000000     24.000000
 -0.166667  0.125000  0.000000     24.000000
 -0.145833  0.125000  0.000000     24.000000
 -0.125000  0.125000  0.000000     12.000000
  0.145833  0.145833 -0.000000      6.000000
  0.166667  0.145833 -0.000000     24.000000
  0.187500  0.145833 -0.000000     24.000000
  0.208333  0.145833 -0.000000     24.000000
  0.229167  0.145833 -0.000000     24.000000
  0.250000  0.145833 -0.000000     24.000000
  0.270833  0.145833 -0.000000     24.000000
  0.291667  0.145833 -0.000000     24.000000
  0.312500  0.145833 -0.000000     24.000000
  0.333333  0.145833 -0.000000     24.000000
  0.354167  0.145833 -0.000000     24.000000
  0.375000  0.145833 -0.000000     24.000000
  0.395833  0.145833 -0.000000     24.000000
  0.416667  0.145833 -0.000000     24.000000
  0.437500  0.145833 -0.000000     24.000000
  0.458333  0.145833 -0.000000     24.000000
  0.479167  0.145833 -0.000000     24.000000
  0.500000  0.145833 -0.000000     24.000000
 -0.479167  0.145833  0.000000     24.000000
 -0.458333  0.145833  0.000000     24.000000
 -0.437500  0.145833  0.000000     24.000000
 -0.416667  0.145833  0.000000     24.000000
 -0.395833  0.145833  0.000000     24.000000
 -0.375000  0.145833  0.000000     24.000000
 -0.354167  0.145833 -0.000000     24.000000
 -0.333333  0.145833 -0.000000     24.000000
 -0.312500  0.145833 -0.000000     24.000000
 -0.291667  0.145833  0.000000     24.000000
 -0.270833  0.145833 -0.000000     24.000000
 -0.250000  0.145833  0.000000     24.000000
 -0.229167  0.145833  0.000000     24.000000
 -0.208333  0.145833 -0.000000     24.000000
 -0.187500  0.145833  0.000000     24.000000
 -0.166667  0.145833  0.000000     24.000000
 -0.145833  0.145833  0.000000     12.000000
  0.166667  0.166667 -0.000000      6.000000
  0.187500  0.166667 -0.000000     24.000000
  0.208333  0.166667 -0.000000     24.000000
  0.229167  0.166667 -0.000000     24.000000
  0.250000  0.166667 -0.000000     24.000000
  0.270833  0.166667 -0.000000     24.000000
  0.291667  0.166667 -0.000000     24.000000
  0.312500  0.166667 -0.000000     24.000000
  0.333333  0.166667  0.000000     24.000000
  0.354167  0.166667 -0.000000     24.000000
  0.375000  0.166667  0.000000     24.000000
  0.395833  0.166667 -0.000000     24.000000
  0.416667  0.166667 -0.000000     24.000000
  0.437500  0.166667 -0.000000     24.000000
  0.458333  0.166667 -0.000000     24.000000
  0.479167  0.166667 -0.000000     24.000000
  0.500000  0.166667 -0.000000     24.000000
 -0.479167  0.166667  0.000000     24.000000
 -0.458333  0.166667  0.000000     24.000000
 -0.437500  0.166667  0.000000     24.000000
 -0.416667  0.166667  0.000000     24.000000
 -0.395833  0.166667  0.000000     24.000000
 -0.375000  0.166667  0.000000     24.000000
 -0.354167  0.166667  0.000000     24.000000
 -0.333333  0.166667  0.000000     24.000000
 -0.312500  0.166667 -0.000000     24.000000
 -0.291667  0.166667  0.000000     24.000000
 -0.270833  0.166667  0.000000     24.000000
 -0.250000  0.166667  0.000000     24.000000
 -0.229167  0.166667  0.000000     24.000000
 -0.208333  0.166667  0.000000     24.000000
 -0.187500  0.166667  0.000000     24.000000
 -0.166667  0.166667  0.000000     12.000000
  0.187500  0.187500 -0.000000      6.000000
  0.208333  0.187500 -0.000000     24.000000
  0.229167  0.187500 -0.000000     24.000000
  0.250000  0.187500 -0.000000     24.000000
  0.270833  0.187500 -0.000000     24.000000
  0.291667  0.187500 -0.000000     24.000000
  0.312500  0.187500 -0.000000     24.000000
  0.333333  0.187500 -0.000000     24.000000
  0.354167  0.187500 -0.000000     24.000000
  0.375000  0.187500 -0.000000     24.000000
  0.395833  0.187500 -0.000000     24.000000
  0.416667  0.187500 -0.000000     24.000000
  0.437500  0.187500 -0.000000     24.000000
  0.458333  0.187500 -0.000000     24.000000
  0.479167  0.187500 -0.000000     24.000000
  0.500000  0.187500 -0.000000     24.000000
 -0.479167  0.187500  0.000000     24.000000
 -0.458333  0.187500  0.000000     24.000000
 -0.437500  0.187500  0.000000     24.000000
 -0.416667  0.187500  0.000000     24.000000
 -0.395833  0.187500  0.000000     24.000000
 -0.375000  0.187500  0.000000     24.000000
 -0.354167  0.187500  0.000000     24.000000
 -0.333333  0.187500  0.000000     24.000000
 -0.312500  0.187500  0.000000     24.000000
 -0.291667  0.187500 -0.000000     24.000000
 -0.270833  0.187500 -0.000000     24.000000
 -0.250000  0.187500  0.000000     24.000000
 -0.229167  0.187500  0.000000     24.000000
 -0.208333  0.187500  0.000000     24.000000
 -0.187500  0.187500  0.000000     12.000000
  0.208333  0.208333 -0.000000      6.000000
  0.229167  0.208333 -0.000000     24.000000
  0.250000  0.208333 -0.000000     24.000000
  0.270833  0.208333 -0.000000     24.000000
  0.291667  0.208333 -0.000000     24.000000
  0.312500  0.208333 -0.000000     24.000000
  0.333333  0.208333 -0.000000     24.000000
  0.354167  0.208333 -0.000000     24.000000
  0.375000  0.208333 -0.000000     24.000000
  0.395833  0.208333 -0.000000     24.000000
  0.416667  0.208333 -0.000000     24.000000
  0.437500  0.208333 -0.000000     24.000000
  0.458333  0.208333 -0.000000     24.000000
  0.479167  0.208333 -0.000000     24.000000
  0.500000  0.208333 -0.000000     24.000000
 -0.479167  0.208333  0.000000     24.000000
 -0.458333  0.208333  0.000000     24.000000
 -0.437500  0.208333  0.000000     24.000000
 -0.416667  0.208333  0.000000     24.000000
 -0.395833  0.208333  0.000000     24.000000
 -0.375000  0.208333  0.000000     24.000000
 -0.354167  0.208333  0.000000     24.000000
 -0.333333  0.208333  0.000000     24.000000
 -0.312500  0.208333  0.000000     24.000000
 -0.291667  0.208333  0.000000     24.000000
 -0.270833  0.208333 -0.000000     24.000000
 -0.250000  0.208333 -0.000000     24.000000
 -0.229167  0.208333  0.000000     24.000000
 -0.208333  0.208333 -0.000000     12.000000
  0.229167  0.229167 -0.000000      6.000000
  0.250000  0.229167 -0.000000     24.000000
  0.270833  0.229167 -0.000000     24.000000
  0.291667  0.229167 -0.000000     24.000000
  0.312500  0.229167 -0.000000     24.000000
  0.333333  0.229167 -0.000000     24.000000
  0.354167  0.229167 -0.000000     24.000000
  0.375000  0.229167 -0.000000     24.000000
  0.395833  0.229167  0.000000     24.000000
  0.416667  0.229167 -0.000000     24.000000
  0.437500  0.229167  0.000000     24.000000
  0.458333  0.229167 -0.000000     24.000000
  0.479167  0.229167  0.000000     24.000000
  0.500000  0.229167 -0.000000     24.000000
 -0.479167  0.229167  0.000000     24.000000
 -0.458333  0.229167  0.000000     24.000000
 -0.437500  0.229167  0.000000     24.000000
 -0.416667  0.229167  0.000000     24.000000
 -0.395833  0.229167  0.000000     24.000000
 -0.375000  0.229167  0.000000     24.000000
 -0.354167  0.229167  0.000000     24.000000
 -0.333333  0.229167  0.000000     24.000000
 -0.312500  0.229167  0.000000     24.000000
 -0.291667  0.229167  0.000000     24.000000
 -0.270833  0.229167  0.000000     24.000000
 -0.250000  0.229167 -0.000000     24.000000
 -0.229167  0.229167  0.000000     12.000000
  0.250000  0.250000 -0.000000      6.000000
  0.270833  0.250000 -0.000000     24.000000
  0.291667  0.250000 -0.000000     24.000000
  0.312500  0.250000 -0.000000     24.000000
  0.333333  0.250000 -0.000000     24.000000
  0.354167  0.250000 -0.000000     24.000000
  0.375000  0.250000 -0.000000     24.000000
  0.395833  0.250000 -0.000000     24.000000
  0.416667  0.250000 -0.000000     24.000000
  0.437500  0.250000 -0.000000     24.000000
  0.458333  0.250000  0.000000     24.000000
  0.479167  0.250000 -0.000000     24.000000
  0.500000  0.250000  0.000000     24.000000
 -0.479167  0.250000  0.000000     24.000000
 -0.458333  0.250000  0.000000     24.000000
 -0.437500  0.250000  0.000000     24.000000
 -0.416667  0.250000  0.000000     24.000000
 -0.395833  0.250000  0.000000     24.000000
 -0.375000  0.250000  0.000000     24.000000
 -0.354167  0.250000  0.000000     24.000000
 -0.333333  0.250000  0.000000     24.000000
 -0.312500  0.250000  0.000000     24.000000
 -0.291667  0.250000  0.000000     24.000000
 -0.270833  0.250000  0.000000     24.000000
 -0.250000  0.250000  0.000000     12.000000
  0.270833  0.270833 -0.000000      6.000000
  0.291667  0.270833 -0.000000     24.000000
  0.312500  0.270833 -0.000000     24.000000
  0.333333  0.270833 -0.000000     24.000000
  0.354167  0.270833 -0.000000     24.000000
  0.375000  0.270833 -0.000000     24.000000
  0.395833  0.270833 -0.000000     24.000000
  0.416667  0.270833 -0.000000     24.000000
  0.437500  0.270833 -0.000000     24.000000
  0.458333  0.270833 -0.000000     24.000000
  0.479167  0.270833 -0.000000     24.000000
  0.500000  0.270833 -0.000000     24.000000
 -0.479167  0.270833  0.000000     24.000000
 -0.458333  0.270833  0.000000     24.000000
 -0.437500  0.270833  0.000000     24.000000
 -0.416667  0.270833  0.000000     24.000000
 -0.395833  0.270833  0.000000     24.000000
 -0.375000  0.270833  0.000000     24.000000
 -0.354167  0.270833  0.000000     24.000000
 -0.333333  0.270833  0.000000     24.000000
 -0.312500  0.270833  0.000000     24.000000
 -0.291667  0.270833  0.000000     24.000000
 -0.270833  0.270833  0.000000     12.000000
  0.291667  0.291667 -0.000000      6.000000
  0.312500  0.291667 -0.000000     24.000000
  0.333333  0.291667 -0.000000     24.000000
  0.354167  0.291667 -0.000000     24.000000
  0.375000  0.291667 -0.000000     24.000000
  0.395833  0.291667 -0.000000     24.000000
  0.416667  0.291667 -0.000000     24.000000
  0.437500  0.291667 -0.000000     24.000000
  0.458333  0.291667 -0.000000     24.000000
  0.479167  0.291667 -0.000000     24.000000
  0.500000  0.291667 -0.000000     24.000000
 -0.479167  0.291667  0.000000     24.000000
 -0.458333  0.291667  0.000000     24.000000
 -0.437500  0.291667  0.000000     24.000000
 -0.416667  0.291667  0.000000     24.000000
 -0.395833  0.291667  0.000000     24.000000
 -0.375000  0.291667  0.000000     24.000000
 -0.354167  0.291667  0.000000     24.000000
 -0.333333  0.291667  0.000000     24.000000
 -0.312500  0.291667  0.000000     24.000000
 -0.291667  0.291667  0.000000     12.000000
  0.312500  0.312500 -0.000000      6.000000
  0.333333  0.312500 -0.000000     24.000000
  0.354167  0.312500 -0.000000     24.000000
  0.375000  0.312500 -0.000000     24.000000
  0.395833  0.312500 -0.000000     24.000000
  0.416667  0.312500 -0.000000     24.000000
  0.437500  0.312500 -0.000000     24.000000
  0.458333  0.312500 -0.000000     24.000000
  0.479167  0.312500 -0.000000     24.000000
  0.500000  0.312500 -0.000000     24.000000
 -0.479167  0.312500  0.000000     24.000000
 -0.458333  0.312500  0.000000     24.000000
 -0.437500  0.312500  0.000000     24.000000
 -0.416667  0.312500  0.000000     24.000000
 -0.395833  0.312500  0.000000     24.000000
 -0.375000  0.312500  0.000000     24.000000
 -0.354167  0.312500  0.000000     24.000000
 -0.333333  0.312500  0.000000     24.000000
 -0.312500  0.312500  0.000000     12.000000
  0.333333  0.333333 -0.000000      6.000000
  0.354167  0.333333 -0.000000     24.000000
  0.375000  0.333333 -0.000000     24.000000
  0.395833  0.333333 -0.000000     24.000000
  0.416667  0.333333 -0.000000     24.000000
  0.437500  0.333333 -0.000000     24.000000
  0.458333  0.333333 -0.000000     24.000000
  0.479167  0.333333 -0.000000     24.000000
  0.500000  0.333333 -0.000000     24.000000
 -0.479167  0.333333  0.000000     24.000000
 -0.458333  0.333333  0.000000     24.000000
 -0.437500  0.333333  0.000000     24.000000
 -0.416667  0.333333  0.000000     24.000000
 -0.395833  0.333333  0.000000     24.000000
 -0.375000  0.333333  0.000000     24.000000
 -0.354167  0.333333  0.000000     24.000000
 -0.333333  0.333333  0.000000     12.000000
  0.354167  0.354167 -0.000000      6.000000
  0.375000  0.354167 -0.000000     24.000000
  0.395833  0.354167 -0.000000     24.000000
  0.416667  0.354167 -0.000000     24.000000
  0.437500  0.354167 -0.000000     24.000000
  0.458333  0.354167 -0.000000     24.000000
  0.479167  0.354167 -0.000000     24.000000
  0.500000  0.354167 -0.000000     24.000000
 -0.479167  0.354167  0.000000     24.000000
 -0.458333  0.354167  0.000000     24.000000
 -0.437500  0.354167  0.000000     24.000000
 -0.416667  0.354167  0.000000     24.000000
 -0.395833  0.354167  0.000000     24.000000
 -0.375000  0.354167  0.000000     24.000000
 -0.354167  0.354167  0.000000     12.000000
  0.375000  0.375000 -0.000000      6.000000
  0.395833  0.375000 -0.000000     24.000000
  0.416667  0.375000 -0.000000     24.000000
  0.437500  0.375000 -0.000000     24.000000
  0.458333  0.375000 -0.000000     24.000000
  0.479167  0.375000 -0.000000     24.000000
  0.500000  0.375000 -0.000000     24.000000
 -0.479167  0.375000  0.000000     24.000000
 -0.458333  0.375000  0.000000     24.000000
 -0.437500  0.375000 -0.000000     24.000000
 -0.416667  0.375000  0.000000     24.000000
 -0.395833  0.375000 -0.000000     24.000000
 -0.375000  0.375000  0.000000     12.000000
  0.395833  0.395833 -0.000000      6.000000
  0.416667  0.395833 -0.000000     24.000000
  0.437500  0.395833 -0.000000     24.000000
  0.458333  0.395833 -0.000000     24.000000
  0.479167  0.395833 -0.000000     24.000000
  0.500000  0.395833 -0.000000     24.000000
 -0.479167  0.395833  0.000000     24.000000
 -0.458333  0.395833 -0.000000     24.000000
 -0.437500  0.395833  0.000000     24.000000
 -0.416667  0.395833  0.000000     24.000000
 -0.395833  0.395833  0.000000     12.000000
  0.416667  0.416667 -0.000000      6.000000
  0.437500  0.416667 -0.000000     24.000000
  0.458333  0.416667 -0.000000     24.000000
  0.479167  0.416667 -0.000000     24.000000
  0.500000  0.416667 -0.000000     24.000000
 -0.479167  0.416667 -0.000000     24.000000
 -0.458333  0.416667  0.000000     24.000000
 -0.437500  0.416667  0.000000     24.000000
 -0.416667  0.416667  0.000000     12.000000
  0.437500  0.437500 -0.000000      6.000000
  0.458333  0.437500 -0.000000     24.000000
  0.479167  0.437500 -0.000000     24.000000
  0.500000  0.437500 -0.000000     24.000000
 -0.479167  0.437500  0.000000     24.000000
 -0.458333  0.437500 -0.000000     24.000000
 -0.437500  0.437500  0.000000     12.000000
  0.458333  0.458333 -0.000000      6.000000
  0.479167  0.458333 -0.000000     24.000000
  0.500000  0.458333 -0.000000     24.000000
 -0.479167  0.458333 -0.000000     24.000000
 -0.458333  0.458333 -0.000000     12.000000
  0.479167  0.479167 -0.000000      6.000000
  0.500000  0.479167 -0.000000     24.000000
 -0.479167  0.479167 -0.000000     12.000000
  0.500000  0.500000 -0.000000      3.000000
  0.062500  0.041667  0.020833     24.000000
  0.083333  0.041667  0.020833     48.000000
  0.104167  0.041667  0.020833     48.000000
  0.125000  0.041667  0.020833     48.000000
  0.145833  0.041667  0.020833     48.000000
  0.166667  0.041667  0.020833     48.000000
  0.187500  0.041667  0.020833     48.000000
  0.208333  0.041667  0.020833     48.000000
  0.229167  0.041667  0.020833     48.000000
  0.250000  0.041667  0.020833     48.000000
  0.270833  0.041667  0.020833     48.000000
  0.291667  0.041667  0.020833     48.000000
  0.312500  0.041667  0.020833     48.000000
  0.333333  0.041667  0.020833     48.000000
  0.354167  0.041667  0.020833     48.000000
  0.375000  0.041667  0.020833     48.000000
  0.395833  0.041667  0.020833     48.000000
  0.416667  0.041667  0.020833     48.000000
  0.437500  0.041667  0.020833     48.000000
  0.458333  0.041667  0.020833     48.000000
  0.479167  0.041667  0.020833     48.000000
  0.500000  0.041667  0.020833     48.000000
 -0.479167  0.041667  0.020833     24.000000
  0.083333  0.062500  0.020833     24.000000
  0.104167  0.062500  0.020833     48.000000
  0.125000  0.062500  0.020833     48.000000
  0.145833  0.062500  0.020833     48.000000
  0.166667  0.062500  0.020833     48.000000
  0.187500  0.062500  0.020833     48.000000
  0.208333  0.062500  0.020833     48.000000
  0.229167  0.062500  0.020833     48.000000
  0.250000  0.062500  0.020833     48.000000
  0.270833  0.062500  0.020833     48.000000
  0.291667  0.062500  0.020833     48.000000
  0.312500  0.062500  0.020833     48.000000
  0.333333  0.062500  0.020833     48.000000
  0.354167  0.062500  0.020833     48.000000
  0.375000  0.062500  0.020833     48.000000
  0.395833  0.062500  0.020833     48.000000
  0.416667  0.062500  0.020833     48.000000
  0.437500  0.062500  0.020833     48.000000
  0.458333  0.062500  0.020833     48.000000
  0.479167  0.062500  0.020833     48.000000
  0.500000  0.062500  0.020833     48.000000
 -0.479167  0.062500  0.020833     48.000000
 -0.458333  0.062500  0.020833     48.000000
 -0.437500  0.062500  0.020833     48.000000
 -0.416667  0.062500  0.020833     48.000000
 -0.395833  0.062500  0.020833     48.000000
 -0.375000  0.062500  0.020833     48.000000
 -0.354167  0.062500  0.020833     48.000000
 -0.333333  0.062500  0.020833     48.000000
 -0.312500  0.062500  0.020833     48.000000
 -0.291667  0.062500  0.020833     48.000000
 -0.270833  0.062500  0.020833     48.000000
 -0.250000  0.062500  0.020833     48.000000
 -0.229167  0.062500  0.020833     48.000000
 -0.208333  0.062500  0.020833     48.000000
 -0.187500  0.062500  0.020833     48.000000
 -0.166667  0.062500  0.020833     48.000000
 -0.145833  0.062500  0.020833     48.000000
 -0.125000  0.062500  0.020833     48.000000
 -0.104167  0.062500  0.020833     48.000000
 -0.083333  0.062500  0.020833     48.000000
 -0.062500  0.062500  0.020833     48.000000
 -0.041667  0.062500  0.020833     24.000000
  0.104167  0.083333  0.020833     24.000000
  0.125000  0.083333  0.020833     48.000000
  0.145833  0.083333  0.020833     48.000000
  0.166667  0.083333  0.020833     48.000000
  0.187500  0.083333  0.020833     48.000000
  0.208333  0.083333  0.020833     48.000000
  0.229167  0.083333  0.020833     48.000000
  0.250000  0.083333  0.020833     48.000000
  0.270833  0.083333  0.020833     48.000000
  0.291667  0.083333  0.020833     48.000000
  0.312500  0.083333  0.020833     48.000000
  0.333333  0.083333  0.020833     48.000000
  0.354167  0.083333  0.020833     48.000000
  0.375000  0.083333  0.020833     48.000000
  0.395833  0.083333  0.020833     48.000000
  0.416667  0.083333  0.020833     48.000000
  0.437500  0.083333  0.020833     48.000000
  0.458333  0.083333  0.020833     48.000000
  0.479167  0.083333  0.020833     48.000000
  0.500000  0.083333  0.020833     48.000000
 -0.479167  0.083333  0.020833     48.000000
 -0.458333  0.083333  0.020833     48.000000
 -0.437500  0.083333  0.020833     48.000000
 -0.416667  0.083333  0.020833     48.000000
 -0.395833  0.083333  0.020833     48.000000
 -0.375000  0.083333  0.020833     48.000000
 -0.354167  0.083333  0.020833     48.000000
 -0.333333  0.083333  0.020833     48.000000
 -0.312500  0.083333  0.020833     48.000000
 -0.291667  0.083333  0.020833     48.000000
 -0.270833  0.083333  0.020833     48.000000
 -0.250000  0.083333  0.020833     48.000000
 -0.229167  0.083333  0.020833     48.000000
 -0.208333  0.083333  0.020833     48.000000
 -0.187500  0.083333  0.020833     48.000000
 -0.166667  0.083333  0.020833     48.000000
 -0.145833  0.083333  0.020833     48.000000
 -0.125000  0.083333  0.020833     48.000000
 -0.104167  0.083333  0.020833     48.000000
 -0.083333  0.083333  0.020833     48.000000
 -0.062500  0.083333  0.020833     24.000000
  0.125000  0.104167  0.020833     24.000000
  0.145833  0.104167  0.020833     48.000000
  0.166667  0.104167  0.020833     48.000000
  0.187500  0.104167  0.020833     48.000000
  0.208333  0.104167  0.020833     48.000000
  0.229167  0.104167  0.020833     48.000000
  0.250000  0.104167  0.020833     48.000000
  0.270833  0.104167  0.020833     48.000000
  0.291667  0.104167  0.020833     48.000000
  0.312500  0.104167  0.020833     48.000000
  0.333333  0.104167  0.020833     48.000000
  0.354167  0.104167  0.020833     48.000000
  0.375000  0.104167  0.020833     48.000000
  0.395833  0.104167  0.020833     48.000000
  0.416667  0.104167  0.020833     48.000000
  0.437500  0.104167  0.020833     48.000000
  0.458333  0.104167  0.020833     48.000000
  0.479167  0.104167  0.020833     48.000000
  0.500000  0.104167  0.020833     48.000000
 -0.479167  0.104167  0.020833     48.000000
 -0.458333  0.104167  0.020833     48.000000
 -0.437500  0.104167  0.020833     48.000000
 -0.416667  0.104167  0.020833     48.000000
 -0.395833  0.104167  0.020833     48.000000
 -0.375000  0.104167  0.020833     48.000000
 -0.354167  0.104167  0.020833     48.000000
 -0.333333  0.104167  0.020833     48.000000
 -0.312500  0.104167  0.020833     48.000000
 -0.291667  0.104167  0.020833     48.000000
 -0.270833  0.104167  0.020833     48.000000
 -0.250000  0.104167  0.020833     48.000000
 -0.229167  0.104167  0.020833     48.000000
 -0.208333  0.104167  0.020833     48.000000
 -0.187500  0.104167  0.020833     48.000000
 -0.166667  0.104167  0.020833     48.000000
 -0.145833  0.104167  0.020833     48.000000
 -0.125000  0.104167  0.020833     48.000000
 -0.104167  0.104167  0.020833     48.000000
 -0.083333  0.104167  0.020833     24.000000
  0.145833  0.125000  0.020833     24.000000
  0.166667  0.125000  0.020833     48.000000
  0.187500  0.125000  0.020833     48.000000
  0.208333  0.125000  0.020833     48.000000
  0.229167  0.125000  0.020833     48.000000
  0.250000  0.125000  0.020833     48.000000
  0.270833  0.125000  0.020833     48.000000
  0.291667  0.125000  0.020833     48.000000
  0.312500  0.125000  0.020833     48.000000
  0.333333  0.125000  0.020833     48.000000
  0.354167  0.125000  0.020833     48.000000
  0.375000  0.125000  0.020833     48.000000
  0.395833  0.125000  0.020833     48.000000
  0.416667  0.125000  0.020833     48.000000
  0.437500  0.125000  0.020833     48.000000
  0.458333  0.125000  0.020833     48.000000
  0.479167  0.125000  0.020833     48.000000
  0.500000  0.125000  0.020833     48.000000
 -0.479167  0.125000  0.020833     48.000000
 -0.458333  0.125000  0.020833     48.000000
 -0.437500  0.125000  0.020833     48.000000
 -0.416667  0.125000  0.020833     48.000000
 -0.395833  0.125000  0.020833     48.000000
 -0.375000  0.125000  0.020833     48.000000
 -0.354167  0.125000  0.020833     48.000000
 -0.333333  0.125000  0.020833     48.000000
 -0.312500  0.125000  0.020833     48.000000
 -0.291667  0.125000  0.020833     48.000000
 -0.270833  0.125000  0.020833     48.000000
 -0.250000  0.125000  0.020833     48.000000
 -0.229167  0.125000  0.020833     48.000000
 -0.208333  0.125000  0.020833     48.000000
 -0.187500  0.125000  0.020833     48.000000
 -0.166667  0.125000  0.020833     48.000000
 -0.145833  0.125000  0.020833     48.000000
 -0.125000  0.125000  0.020833     48.000000
 -0.104167  0.125000  0.020833     24.000000
  0.166667  0.145833  0.020833     24.000000
  0.187500  0.145833  0.020833     48.000000
  0.208333  0.145833  0.020833     48.000000
  0.229167  0.145833  0.020833     48.000000
  0.250000  0.145833  0.020833     48.000000
  0.270833  0.145833  0.020833     48.000000
  0.291667  0.145833  0.020833     48.000000
  0.312500  0.145833  0.020833     48.000000
  0.333333  0.145833  0.020833     48.000000
  0.354167  0.145833  0.020833     48.000000
  0.375000  0.145833  0.020833     48.000000
  0.395833  0.145833  0.020833     48.000000
  0.416667  0.145833  0.020833     48.000000
  0.437500  0.145833  0.020833     48.000000
  0.458333  0.145833  0.020833     48.000000
  0.479167  0.145833  0.020833     48.000000
  0.500000  0.145833  0.020833     48.000000
 -0.479167  0.145833  0.020833     48.000000
 -0.458333  0.145833  0.020833     48.000000
 -0.437500  0.145833  0.020833     48.000000
 -0.416667  0.145833  0.020833     48.000000
 -0.395833  0.145833  0.020833     48.000000
 -0.375000  0.145833  0.020833     48.000000
 -0.354167  0.145833  0.020833     48.000000
 -0.333333  0.145833  0.020833     48.000000
 -0.312500  0.145833  0.020833     48.000000
 -0.291667  0.145833  0.020833     48.000000
 -0.270833  0.145833  0.020833     48.000000
 -0.250000  0.145833  0.020833     48.000000
 -0.229167  0.145833  0.020833     48.000000
 -0.208333  0.145833  0.020833     48.000000
 -0.187500  0.145833  0.020833     48.000000
 -0.166667  0.145833  0.020833     48.000000
 -0.145833  0.145833  0.020833     48.000000
 -0.125000  0.145833  0.020833     24.000000
  0.187500  0.166667  0.020833     24.000000
  0.208333  0.166667  0.020833     48.000000
  0.229167  0.166667  0.020833     48.000000
  0.250000  0.166667  0.020833     48.000000
  0.270833  0.166667  0.020833     48.000000
  0.291667  0.166667  0.020833     48.000000
  0.312500  0.166667  0.020833     48.000000
  0.333333  0.166667  0.020833     48.000000
  0.354167  0.166667  0.020833     48.000000
  0.375000  0.166667  0.020833     48.000000
  0.395833  0.166667  0.020833     48.000000
  0.416667  0.166667  0.020833     48.000000
  0.437500  0.166667  0.020833     48.000000
  0.458333  0.166667  0.020833     48.000000
  0.479167  0.166667  0.020833     48.000000
  0.500000  0.166667  0.020833     48.000000
 -0.479167  0.166667  0.020833     48.000000
 -0.458333  0.166667  0.020833     48.000000
 -0.437500  0.166667  0.020833     48.000000
 -0.416667  0.166667  0.020833     48.000000
 -0.395833  0.166667  0.020833     48.000000
 -0.375000  0.166667  0.020833     48.000000
 -0.354167  0.166667  0.020833     48.000000
 -0.333333  0.166667  0.020833     48.000000
 -0.312500  0.166667  0.020833     48.000000
 -0.291667  0.166667  0.020833     48.000000
 -0.270833  0.166667  0.020833     48.000000
 -0.250000  0.166667  0.020833     48.000000
 -0.229167  0.166667  0.020833     48.000000
 -0.208333  0.166667  0.020833     48.000000
 -0.187500  0.166667  0.020833     48.000000
 -0.166667  0.166667  0.020833     48.000000
 -0.145833  0.166667  0.020833     24.000000
  0.208333  0.187500  0.020833     24.000000
  0.229167  0.187500  0.020833     48.000000
  0.250000  0.187500  0.020833     48.000000
  0.270833  0.187500  0.020833     48.000000
  0.291667  0.187500  0.020833     48.000000
  0.312500  0.187500  0.020833     48.000000
  0.333333  0.187500  0.020833     48.000000
  0.354167  0.187500  0.020833     48.000000
  0.375000  0.187500  0.020833     48.000000
  0.395833  0.187500  0.020833     48.000000
  0.416667  0.187500  0.020833     48.000000
  0.437500  0.187500  0.020833     48.000000
  0.458333  0.187500  0.020833     48.000000
  0.479167  0.187500  0.020833     48.000000
  0.500000  0.187500  0.020833     48.000000
 -0.479167  0.187500  0.020833     48.000000
 -0.458333  0.187500  0.020833     48.000000
 -0.437500  0.187500  0.020833     48.000000
 -0.416667  0.187500  0.020833     48.000000
 -0.395833  0.187500  0.020833     48.000000
 -0.375000  0.187500  0.020833     48.000000
 -0.354167  0.187500  0.020833     48.000000
 -0.333333  0.187500  0.020833     48.000000
 -0.312500  0.187500  0.020833     48.000000
 -0.291667  0.187500  0.020833     48.000000
 -0.270833  0.187500  0.020833     48.000000
 -0.250000  0.187500  0.020833     48.000000
 -0.229167  0.187500  0.020833     48.000000
 -0.208333  0.187500  0.020833     48.000000
 -0.187500  0.187500  0.020833     48.000000
 -0.166667  0.187500  0.020833     24.000000
  0.229167  0.208333  0.020833     24.000000
  0.250000  0.208333  0.020833     48.000000
  0.270833  0.208333  0.020833     48.000000
  0.291667  0.208333  0.020833     48.000000
  0.312500  0.208333  0.020833     48.000000
  0.333333  0.208333  0.020833     48.000000
  0.354167  0.208333  0.020833     48.000000
  0.375000  0.208333  0.020833     48.000000
  0.395833  0.208333  0.020833     48.000000
  0.416667  0.208333  0.020833     48.000000
  0.437500  0.208333  0.020833     48.000000
  0.458333  0.208333  0.020833     48.000000
  0.479167  0.208333  0.020833     48.000000
  0.500000  0.208333  0.020833     48.000000
 -0.479167  0.208333  0.020833     48.000000
 -0.458333  0.208333  0.020833     48.000000
 -0.437500  0.208333  0.020833     48.000000
 -0.416667  0.208333  0.020833     48.000000
 -0.395833  0.208333  0.020833     48.000000
 -0.375000  0.208333  0.020833     48.000000
 -0.354167  0.208333  0.020833     48.000000
 -0.333333  0.208333  0.020833     48.000000
 -0.312500  0.208333  0.020833     48.000000
 -0.291667  0.208333  0.020833     48.000000
 -0.270833  0.208333  0.020833     48.000000
 -0.250000  0.208333  0.020833     48.000000
 -0.229167  0.208333  0.020833     48.000000
 -0.208333  0.208333  0.020833     48.000000
 -0.187500  0.208333  0.020833     24.000000
  0.250000  0.229167  0.020833     24.000000
  0.270833  0.229167  0.020833     48.000000
  0.291667  0.229167  0.020833     48.000000
  0.312500  0.229167  0.020833     48.000000
  0.333333  0.229167  0.020833     48.000000
  0.354167  0.229167  0.020833     48.000000
  0.375000  0.229167  0.020833     48.000000
  0.395833  0.229167  0.020833     48.000000
  0.416667  0.229167  0.020833     48.000000
  0.437500  0.229167  0.020833     48.000000
  0.458333  0.229167  0.020833     48.000000
  0.479167  0.229167  0.020833     48.000000
  0.500000  0.229167  0.020833     48.000000
 -0.479167  0.229167  0.020833     48.000000
 -0.458333  0.229167  0.020833     48.000000
 -0.437500  0.229167  0.020833     48.000000
 -0.416667  0.229167  0.020833     48.000000
 -0.395833  0.229167  0.020833     48.000000
 -0.375000  0.229167  0.020833     48.000000
 -0.354167  0.229167  0.020833     48.000000
 -0.333333  0.229167  0.020833     48.000000
 -0.312500  0.229167  0.020833     48.000000
 -0.291667  0.229167  0.020833     48.000000
 -0.270833  0.229167  0.020833     48.000000
 -0.250000  0.229167  0.020833     48.000000
 -0.229167  0.229167  0.020833     48.000000
 -0.208333  0.229167  0.020833     24.000000
  0.270833  0.250000  0.020833     24.000000
  0.291667  0.250000  0.020833     48.000000
  0.312500  0.250000  0.020833     48.000000
  0.333333  0.250000  0.020833     48.000000
  0.354167  0.250000  0.020833     48.000000
  0.375000  0.250000  0.020833     48.000000
  0.395833  0.250000  0.020833     48.000000
  0.416667  0.250000  0.020833     48.000000
  0.437500  0.250000  0.020833     48.000000
  0.458333  0.250000  0.020833     48.000000
  0.479167  0.250000  0.020833     48.000000
  0.500000  0.250000  0.020833     48.000000
 -0.479167  0.250000  0.020833     48.000000
 -0.458333  0.250000  0.020833     48.000000
 -0.437500  0.250000  0.020833     48.000000
 -0.416667  0.250000  0.020833     48.000000
 -0.395833  0.250000  0.020833     48.000000
 -0.375000  0.250000  0.020833     48.000000
 -0.354167  0.250000  0.020833     48.000000
 -0.333333  0.250000  0.020833     48.000000
 -0.312500  0.250000  0.020833     48.000000
 -0.291667  0.250000  0.020833     48.000000
 -0.270833  0.250000  0.020833     48.000000
 -0.250000  0.250000  0.020833     48.000000
 -0.229167  0.250000  0.020833     24.000000
  0.291667  0.270833  0.020833     24.000000
  0.312500  0.270833  0.020833     48.000000
  0.333333  0.270833  0.020833     48.000000
  0.354167  0.270833  0.020833     48.000000
  0.375000  0.270833  0.020833     48.000000
  0.395833  0.270833  0.020833     48.000000
  0.416667  0.270833  0.020833     48.000000
  0.437500  0.270833  0.020833     48.000000
  0.458333  0.270833  0.020833     48.000000
  0.479167  0.270833  0.020833     48.000000
  0.500000  0.270833  0.020833     48.000000
 -0.479167  0.270833  0.020833     48.000000
 -0.458333  0.270833  0.020833     48.000000
 -0.437500  0.270833  0.020833     48.000000
 -0.416667  0.270833  0.020833     48.000000
 -0.395833  0.270833  0.020833     48.000000
 -0.375000  0.270833  0.020833     48.000000
 -0.354167  0.270833  0.020833     48.000000
 -0.333333  0.270833  0.020833     48.000000
 -0.312500  0.270833  0.020833     48.000000
 -0.291667  0.270833  0.020833     48.000000
 -0.270833  0.270833  0.020833     48.000000
 -0.250000  0.270833  0.020833     24.000000
  0.312500  0.291667  0.020833     24.000000
  0.333333  0.291667  0.020833     48.000000
  0.354167  0.291667  0.020833     48.000000
  0.375000  0.291667  0.020833     48.000000
  0.395833  0.291667  0.020833     48.000000
  0.416667  0.291667  0.020833     48.000000
  0.437500  0.291667  0.020833     48.000000
  0.458333  0.291667  0.020833     48.000000
  0.479167  0.291667  0.020833     48.000000
  0.500000  0.291667  0.020833     48.000000
 -0.479167  0.291667  0.020833     48.000000
 -0.458333  0.291667  0.020833     48.000000
 -0.437500  0.291667  0.020833     48.000000
 -0.416667  0.291667  0.020833     48.000000
 -0.395833  0.291667  0.020833     48.000000
 -0.375000  0.291667  0.020833     48.000000
 -0.354167  0.291667  0.020833     48.000000
 -0.333333  0.291667  0.020833     48.000000
 -0.312500  0.291667  0.020833     48.000000
 -0.291667  0.291667  0.020833     48.000000
 -0.270833  0.291667  0.020833     24.000000
  0.333333  0.312500  0.020833     24.000000
  0.354167  0.312500  0.020833     48.000000
  0.375000  0.312500  0.020833     48.000000
  0.395833  0.312500  0.020833     48.000000
  0.416667  0.312500  0.020833     48.000000
  0.437500  0.312500  0.020833     48.000000
  0.458333  0.312500  0.020833     48.000000
  0.479167  0.312500  0.020833     48.000000
  0.500000  0.312500  0.020833     48.000000
 -0.479167  0.312500  0.020833     48.000000
 -0.458333  0.312500  0.020833     48.000000
 -0.437500  0.312500  0.020833     48.000000
 -0.416667  0.312500  0.020833     48.000000
 -0.395833  0.312500  0.020833     48.000000
 -0.375000  0.312500  0.020833     48.000000
 -0.354167  0.312500  0.020833     48.000000
 -0.333333  0.312500  0.020833     48.000000
 -0.312500  0.312500  0.020833     48.000000
 -0.291667  0.312500  0.020833     24.000000
  0.354167  0.333333  0.020833     24.000000
  0.375000  0.333333  0.020833     48.000000
  0.395833  0.333333  0.020833     48.000000
  0.416667  0.333333  0.020833     48.000000
  0.437500  0.333333  0.020833     48.000000
  0.458333  0.333333  0.020833     48.000000
  0.479167  0.333333  0.020833     48.000000
  0.500000  0.333333  0.020833     48.000000
 -0.479167  0.333333  0.020833     48.000000
 -0.458333  0.333333  0.020833     48.000000
 -0.437500  0.333333  0.020833     48.000000
 -0.416667  0.333333  0.020833     48.000000
 -0.395833  0.333333  0.020833     48.000000
 -0.375000  0.333333  0.020833     48.000000
 -0.354167  0.333333  0.020833     48.000000
 -0.333333  0.333333  0.020833     48.000000
 -0.312500  0.333333  0.020833     24.000000
  0.375000  0.354167  0.020833     24.000000
  0.395833  0.354167  0.020833     48.000000
  0.416667  0.354167  0.020833     48.000000
  0.437500  0.354167  0.020833     48.000000
  0.458333  0.354167  0.020833     48.000000
  0.479167  0.354167  0.020833     48.000000
  0.500000  0.354167  0.020833     48.000000
 -0.479167  0.354167  0.020833     48.000000
 -0.458333  0.354167  0.020833     48.000000
 -0.437500  0.354167  0.020833     48.000000
 -0.416667  0.354167  0.020833     48.000000
 -0.395833  0.354167  0.020833     48.000000
 -0.375000  0.354167  0.020833     48.000000
 -0.354167  0.354167  0.020833     48.000000
 -0.333333  0.354167  0.020833     24.000000
  0.395833  0.375000  0.020833     24.000000
  0.416667  0.375000  0.020833     48.000000
  0.437500  0.375000  0.020833     48.000000
  0.458333  0.375000  0.020833     48.000000
  0.479167  0.375000  0.020833     48.000000
  0.500000  0.375000  0.020833     48.000000
 -0.479167  0.375000  0.020833     48.000000
 -0.458333  0.375000  0.020833     48.000000
 -0.437500  0.375000  0.020833     48.000000
 -0.416667  0.375000  0.020833     48.000000
 -0.395833  0.375000  0.020833     48.000000
 -0.375000  0.375000  0.020833     48.000000
 -0.354167  0.375000  0.020833     24.000000
  0.416667  0.395833  0.020833     24.000000
  0.437500  0.395833  0.020833     48.000000
  0.458333  0.395833  0.020833     48.000000
  0.479167  0.395833  0.020833     48.000000
  0.500000  0.395833  0.020833     48.000000
 -0.479167  0.395833  0.020833     48.000000
 -0.458333  0.395833  0.020833     48.000000
 -0.437500  0.395833  0.020833     48.000000
 -0.416667  0.395833  0.020833     48.000000
 -0.395833  0.395833  0.020833     48.000000
 -0.375000  0.395833  0.020833     24.000000
  0.437500  0.416667  0.020833     24.000000
  0.458333  0.416667  0.020833     48.000000
  0.479167  0.416667  0.020833     48.000000
  0.500000  0.416667  0.020833     48.000000
 -0.479167  0.416667  0.020833     48.000000
 -0.458333  0.416667  0.020833     48.000000
 -0.437500  0.416667  0.020833     48.000000
 -0.416667  0.416667  0.020833     48.000000
 -0.395833  0.416667  0.020833     24.000000
  0.458333  0.437500  0.020833     24.000000
  0.479167  0.437500  0.020833     48.000000
  0.500000  0.437500  0.020833     48.000000
 -0.479167  0.437500  0.020833     48.000000
 -0.458333  0.437500  0.020833     48.000000
 -0.437500  0.437500  0.020833     48.000000
 -0.416667  0.437500  0.020833     24.000000
  0.479167  0.458333  0.020833     24.000000
  0.500000  0.458333  0.020833     48.000000
 -0.479167  0.458333  0.020833     48.000000
 -0.458333  0.458333  0.020833     48.000000
 -0.437500  0.458333  0.020833     24.000000
  0.500000  0.479167  0.020833     24.000000
 -0.479167  0.479167  0.020833     48.000000
 -0.458333  0.479167  0.020833     24.000000
 -0.479167  0.500000  0.020833     12.000000
  0.125000  0.083333  0.041667     24.000000
  0.145833  0.083333  0.041667     48.000000
  0.166667  0.083333  0.041667     48.000000
  0.187500  0.083333  0.041667     48.000000
  0.208333  0.083333  0.041667     48.000000
  0.229167  0.083333  0.041667     48.000000
  0.250000  0.083333  0.041667     48.000000
  0.270833  0.083333  0.041667     48.000000
  0.291667  0.083333  0.041667     48.000000
  0.312500  0.083333  0.041667     48.000000
  0.333333  0.083333  0.041667     48.000000
  0.354167  0.083333  0.041667     48.000000
  0.375000  0.083333  0.041667     48.000000
  0.395833  0.083333  0.041667     48.000000
  0.416667  0.083333  0.041667     48.000000
  0.437500  0.083333  0.041667     48.000000
  0.458333  0.083333  0.041667     48.000000
  0.479167  0.083333  0.041667     48.000000
  0.500000  0.083333  0.041667     48.000000
 -0.479167  0.083333  0.041667     48.000000
 -0.458333  0.083333  0.041667     24.000000
  0.145833  0.104167  0.041667     24.000000
  0.166667  0.104167  0.041667     48.000000
  0.187500  0.104167  0.041667     48.000000
  0.208333  0.104167  0.041667     48.000000
  0.229167  0.104167  0.041667     48.000000
  0.250000  0.104167  0.041667     48.000000
  0.270833  0.104167  0.041667     48.000000
  0.291667  0.104167  0.041667     48.000000
  0.312500  0.104167  0.041667     48.000000
  0.333333  0.104167  0.041667     48.000000
  0.354167  0.104167  0.041667     48.000000
  0.375000  0.104167  0.041667     48.000000
  0.395833  0.104167  0.041667     48.000000
  0.416667  0.104167  0.041667     48.000000
  0.437500  0.104167  0.041667     48.000000
  0.458333  0.104167  0.041667     48.000000
  0.479167  0.104167  0.041667     48.000000
  0.500000  0.104167  0.041667     48.000000
 -0.479167  0.104167  0.041667     48.000000
 -0.458333  0.104167  0.041667     48.000000
 -0.437500  0.104167  0.041667     48.000000
 -0.416667  0.104167  0.041667     48.000000
 -0.395833  0.104167  0.041667     48.000000
 -0.375000  0.104167  0.041667     48.000000
 -0.354167  0.104167  0.041667     48.000000
 -0.333333  0.104167  0.041667     48.000000
 -0.312500  0.104167  0.041667     48.000000
 -0.291667  0.104167  0.041667     48.000000
 -0.270833  0.104167  0.041667     48.000000
 -0.250000  0.104167  0.041667     48.000000
 -0.229167  0.104167  0.041667     48.000000
 -0.208333  0.104167  0.041667     48.000000
 -0.187500  0.104167  0.041667     48.000000
 -0.166667  0.104167  0.041667     48.000000
 -0.145833  0.104167  0.041667     48.000000
 -0.125000  0.104167  0.041667     48.000000
 -0.104167  0.104167  0.041667     48.000000
 -0.083333  0.104167  0.041667     48.000000
 -0.062500  0.104167  0.041667     24.000000
  0.166667  0.125000  0.041667     24.000000
  0.187500  0.125000  0.041667     48.000000
  0.208333  0.125000  0.041667     48.000000
  0.229167  0.125000  0.041667     48.000000
  0.250000  0.125000  0.041667     48.000000
  0.270833  0.125000  0.041667     48.000000
  0.291667  0.125000  0.041667     48.000000
  0.312500  0.125000  0.041667     48.000000
  0.333333  0.125000  0.041667     48.000000
  0.354167  0.125000  0.041667     48.000000
  0.375000  0.125000  0.041667     48.000000
  0.395833  0.125000  0.041667     48.000000
  0.416667  0.125000  0.041667     48.000000
  0.437500  0.125000  0.041667     48.000000
  0.458333  0.125000  0.041667     48.000000
  0.479167  0.125000  0.041667     48.000000
  0.500000  0.125000  0.041667     48.000000
 -0.479167  0.125000  0.041667     48.000000
 -0.458333  0.125000  0.041667     48.000000
 -0.437500  0.125000  0.041667     48.000000
 -0.416667  0.125000  0.041667     48.000000
 -0.395833  0.125000  0.041667     48.000000
 -0.375000  0.125000  0.041667     48.000000
 -0.354167  0.125000  0.041667     48.000000
 -0.333333  0.125000  0.041667     48.000000
 -0.312500  0.125000  0.041667     48.000000
 -0.291667  0.125000  0.041667     48.000000
 -0.270833  0.125000  0.041667     48.000000
 -0.250000  0.125000  0.041667     48.000000
 -0.229167  0.125000  0.041667     48.000000
 -0.208333  0.125000  0.041667     48.000000
 -0.187500  0.125000  0.041667     48.000000
 -0.166667  0.125000  0.041667     48.000000
 -0.145833  0.125000  0.041667     48.000000
 -0.125000  0.125000  0.041667     48.000000
 -0.104167  0.125000  0.041667     48.000000
 -0.083333  0.125000  0.041667     24.000000
  0.187500  0.145833  0.041667     24.000000
  0.208333  0.145833  0.041667     48.000000
  0.229167  0.145833  0.041667     48.000000
  0.250000  0.145833  0.041667     48.000000
  0.270833  0.145833  0.041667     48.000000
  0.291667  0.145833  0.041667     48.000000
  0.312500  0.145833  0.041667     48.000000
  0.333333  0.145833  0.041667     48.000000
  0.354167  0.145833  0.041667     48.000000
  0.375000  0.145833  0.041667     48.000000
  0.395833  0.145833  0.041667     48.000000
  0.416667  0.145833  0.041667     48.000000
  0.437500  0.145833  0.041667     48.000000
  0.458333  0.145833  0.041667     48.000000
  0.479167  0.145833  0.041667     48.000000
  0.500000  0.145833  0.041667     48.000000
 -0.479167  0.145833  0.041667     48.000000
 -0.458333  0.145833  0.041667     48.000000
 -0.437500  0.145833  0.041667     48.000000
 -0.416667  0.145833  0.041667     48.000000
 -0.395833  0.145833  0.041667     48.000000
 -0.375000  0.145833  0.041667     48.000000
 -0.354167  0.145833  0.041667     48.000000
 -0.333333  0.145833  0.041667     48.000000
 -0.312500  0.145833  0.041667     48.000000
 -0.291667  0.145833  0.041667     48.000000
 -0.270833  0.145833  0.041667     48.000000
 -0.250000  0.145833  0.041667     48.000000
 -0.229167  0.145833  0.041667     48.000000
 -0.208333  0.145833  0.041667     48.000000
 -0.187500  0.145833  0.041667     48.000000
 -0.166667  0.145833  0.041667     48.000000
 -0.145833  0.145833  0.041667     48.000000
 -0.125000  0.145833  0.041667     48.000000
 -0.104167  0.145833  0.041667     24.000000
  0.208333  0.166667  0.041667     24.000000
  0.229167  0.166667  0.041667     48.000000
  0.250000  0.166667  0.041667     48.000000
  0.270833  0.166667  0.041667     48.000000
  0.291667  0.166667  0.041667     48.000000
  0.312500  0.166667  0.041667     48.000000
  0.333333  0.166667  0.041667     48.000000
  0.354167  0.166667  0.041667     48.000000
  0.375000  0.166667  0.041667     48.000000
  0.395833  0.166667  0.041667     48.000000
  0.416667  0.166667  0.041667     48.000000
  0.437500  0.166667  0.041667     48.000000
  0.458333  0.166667  0.041667     48.000000
  0.479167  0.166667  0.041667     48.000000
  0.500000  0.166667  0.041667     48.000000
 -0.479167  0.166667  0.041667     48.000000
 -0.458333  0.166667  0.041667     48.000000
 -0.437500  0.166667  0.041667     48.000000
 -0.416667  0.166667  0.041667     48.000000
 -0.395833  0.166667  0.041667     48.000000
 -0.375000  0.166667  0.041667     48.000000
 -0.354167  0.166667  0.041667     48.000000
 -0.333333  0.166667  0.041667     48.000000
 -0.312500  0.166667  0.041667     48.000000
 -0.291667  0.166667  0.041667     48.000000
 -0.270833  0.166667  0.041667     48.000000
 -0.250000  0.166667  0.041667     48.000000
 -0.229167  0.166667  0.041667     48.000000
 -0.208333  0.166667  0.041667     48.000000
 -0.187500  0.166667  0.041667     48.000000
 -0.166667  0.166667  0.041667     48.000000
 -0.145833  0.166667  0.041667     48.000000
 -0.125000  0.166667  0.041667     24.000000
  0.229167  0.187500  0.041667     24.000000
  0.250000  0.187500  0.041667     48.000000
  0.270833  0.187500  0.041667     48.000000
  0.291667  0.187500  0.041667     48.000000
  0.312500  0.187500  0.041667     48.000000
  0.333333  0.187500  0.041667     48.000000
  0.354167  0.187500  0.041667     48.000000
  0.375000  0.187500  0.041667     48.000000
  0.395833  0.187500  0.041667     48.000000
  0.416667  0.187500  0.041667     48.000000
  0.437500  0.187500  0.041667     48.000000
  0.458333  0.187500  0.041667     48.000000
  0.479167  0.187500  0.041667     48.000000
  0.500000  0.187500  0.041667     48.000000
 -0.479167  0.187500  0.041667     48.000000
 -0.458333  0.187500  0.041667     48.000000
 -0.437500  0.187500  0.041667     48.000000
 -0.416667  0.187500  0.041667     48.000000
 -0.395833  0.187500  0.041667     48.000000
 -0.375000  0.187500  0.041667     48.000000
 -0.354167  0.187500  0.041667     48.000000
 -0.333333  0.187500  0.041667     48.000000
 -0.312500  0.187500  0.041667     48.000000
 -0.291667  0.187500  0.041667     48.000000
 -0.270833  0.187500  0.041667     48.000000
 -0.250000  0.187500  0.041667     48.000000
 -0.229167  0.187500  0.041667     48.000000
 -0.208333  0.187500  0.041667     48.000000
 -0.187500  0.187500  0.041667     48.000000
 -0.166667  0.187500  0.041667     48.000000
 -0.145833  0.187500  0.041667     24.000000
  0.250000  0.208333  0.041667     24.000000
  0.270833  0.208333  0.041667     48.000000
  0.291667  0.208333  0.041667     48.000000
  0.312500  0.208333  0.041667     48.000000
  0.333333  0.208333  0.041667     48.000000
  0.354167  0.208333  0.041667     48.000000
  0.375000  0.208333  0.041667     48.000000
  0.395833  0.208333  0.041667     48.000000
  0.416667  0.208333  0.041667     48.000000
  0.437500  0.208333  0.041667     48.000000
  0.458333  0.208333  0.041667     48.000000
  0.479167  0.208333  0.041667     48.000000
  0.500000  0.208333  0.041667     48.000000
 -0.479167  0.208333  0.041667     48.000000
 -0.458333  0.208333  0.041667     48.000000
 -0.437500  0.208333  0.041667     48.000000
 -0.416667  0.208333  0.041667     48.000000
 -0.395833  0.208333  0.041667     48.000000
 -0.375000  0.208333  0.041667     48.000000
 -0.354167  0.208333  0.041667     48.000000
 -0.333333  0.208333  0.041667     48.000000
 -0.312500  0.208333  0.041667     48.000000
 -0.291667  0.208333  0.041667     48.000000
 -0.270833  0.208333  0.041667     48.000000
 -0.250000  0.208333  0.041667     48.000000
 -0.229167  0.208333  0.041667     48.000000
 -0.208333  0.208333  0.041667     48.000000
 -0.187500  0.208333  0.041667     48.000000
 -0.166667  0.208333  0.041667     24.000000
  0.270833  0.229167  0.041667     24.000000
  0.291667  0.229167  0.041667     48.000000
  0.312500  0.229167  0.041667     48.000000
  0.333333  0.229167  0.041667     48.000000
  0.354167  0.229167  0.041667     48.000000
  0.375000  0.229167  0.041667     48.000000
  0.395833  0.229167  0.041667     48.000000
  0.416667  0.229167  0.041667     48.000000
  0.437500  0.229167  0.041667     48.000000
  0.458333  0.229167  0.041667     48.000000
  0.479167  0.229167  0.041667     48.000000
  0.500000  0.229167  0.041667     48.000000
 -0.479167  0.229167  0.041667     48.000000
 -0.458333  0.229167  0.041667     48.000000
 -0.437500  0.229167  0.041667     48.000000
 -0.416667  0.229167  0.041667     48.000000
 -0.395833  0.229167  0.041667     48.000000
 -0.375000  0.229167  0.041667     48.000000
 -0.354167  0.229167  0.041667     48.000000
 -0.333333  0.229167  0.041667     48.000000
 -0.312500  0.229167  0.041667     48.000000
 -0.291667  0.229167  0.041667     48.000000
 -0.270833  0.229167  0.041667     48.000000
 -0.250000  0.229167  0.041667     48.000000
 -0.229167  0.229167  0.041667     48.000000
 -0.208333  0.229167  0.041667     48.000000
 -0.187500  0.229167  0.041667     24.000000
  0.291667  0.250000  0.041667     24.000000
  0.312500  0.250000  0.041667     48.000000
  0.333333  0.250000  0.041667     48.000000
  0.354167  0.250000  0.041667     48.000000
  0.375000  0.250000  0.041667     48.000000
  0.395833  0.250000  0.041667     48.000000
  0.416667  0.250000  0.041667     48.000000
  0.437500  0.250000  0.041667     48.000000
  0.458333  0.250000  0.041667     48.000000
  0.479167  0.250000  0.041667     48.000000
  0.500000  0.250000  0.041667     48.000000
 -0.479167  0.250000  0.041667     48.000000
 -0.458333  0.250000  0.041667     48.000000
 -0.437500  0.250000  0.041667     48.000000
 -0.416667  0.250000  0.041667     48.000000
 -0.395833  0.250000  0.041667     48.000000
 -0.375000  0.250000  0.041667     48.000000
 -0.354167  0.250000  0.041667     48.000000
 -0.333333  0.250000  0.041667     48.000000
 -0.312500  0.250000  0.041667     48.000000
 -0.291667  0.250000  0.041667     48.000000
 -0.270833  0.250000  0.041667     48.000000
 -0.250000  0.250000  0.041667     48.000000
 -0.229167  0.250000  0.041667     48.000000
 -0.208333  0.250000  0.041667     24.000000
  0.312500  0.270833  0.041667     24.000000
  0.333333  0.270833  0.041667     48.000000
  0.354167  0.270833  0.041667     48.000000
  0.375000  0.270833  0.041667     48.000000
  0.395833  0.270833  0.041667     48.000000
  0.416667  0.270833  0.041667     48.000000
  0.437500  0.270833  0.041667     48.000000
  0.458333  0.270833  0.041667     48.000000
  0.479167  0.270833  0.041667     48.000000
  0.500000  0.270833  0.041667     48.000000
 -0.479167  0.270833  0.041667     48.000000
 -0.458333  0.270833  0.041667     48.000000
 -0.437500  0.270833  0.041667     48.000000
 -0.416667  0.270833  0.041667     48.000000
 -0.395833  0.270833  0.041667     48.000000
 -0.375000  0.270833  0.041667     48.000000
 -0.354167  0.270833  0.041667     48.000000
 -0.333333  0.270833  0.041667     48.000000
 -0.312500  0.270833  0.041667     48.000000
 -0.291667  0.270833  0.041667     48.000000
 -0.270833  0.270833  0.041667     48.000000
 -0.250000  0.270833  0.041667     48.000000
 -0.229167  0.270833  0.041667     24.000000
  0.333333  0.291667  0.041667     24.000000
  0.354167  0.291667  0.041667     48.000000
  0.375000  0.291667  0.041667     48.000000
  0.395833  0.291667  0.041667     48.000000
  0.416667  0.291667  0.041667     48.000000
  0.437500  0.291667  0.041667     48.000000
  0.458333  0.291667  0.041667     48.000000
  0.479167  0.291667  0.041667     48.000000
  0.500000  0.291667  0.041667     48.000000
 -0.479167  0.291667  0.041667     48.000000
 -0.458333  0.291667  0.041667     48.000000
 -0.437500  0.291667  0.041667     48.000000
 -0.416667  0.291667  0.041667     48.000000
 -0.395833  0.291667  0.041667     48.000000
 -0.375000  0.291667  0.041667     48.000000
 -0.354167  0.291667  0.041667     48.000000
 -0.333333  0.291667  0.041667     48.000000
 -0.312500  0.291667  0.041667     48.000000
 -0.291667  0.291667  0.041667     48.000000
 -0.270833  0.291667  0.041667     48.000000
 -0.250000  0.291667  0.041667     24.000000
  0.354167  0.312500  0.041667     24.000000
  0.375000  0.312500  0.041667     48.000000
  0.395833  0.312500  0.041667     48.000000
  0.416667  0.312500  0.041667     48.000000
  0.437500  0.312500  0.041667     48.000000
  0.458333  0.312500  0.041667     48.000000
  0.479167  0.312500  0.041667     48.000000
  0.500000  0.312500  0.041667     48.000000
 -0.479167  0.312500  0.041667     48.000000
 -0.458333  0.312500  0.041667     48.000000
 -0.437500  0.312500  0.041667     48.000000
 -0.416667  0.312500  0.041667     48.000000
 -0.395833  0.312500  0.041667     48.000000
 -0.375000  0.312500  0.041667     48.000000
 -0.354167  0.312500  0.041667     48.000000
 -0.333333  0.312500  0.041667     48.000000
 -0.312500  0.312500  0.041667     48.000000
 -0.291667  0.312500  0.041667     48.000000
 -0.270833  0.312500  0.041667     24.000000
  0.375000  0.333333  0.041667     24.000000
  0.395833  0.333333  0.041667     48.000000
  0.416667  0.333333  0.041667     48.000000
  0.437500  0.333333  0.041667     48.000000
  0.458333  0.333333  0.041667     48.000000
  0.479167  0.333333  0.041667     48.000000
  0.500000  0.333333  0.041667     48.000000
 -0.479167  0.333333  0.041667     48.000000
 -0.458333  0.333333  0.041667     48.000000
 -0.437500  0.333333  0.041667     48.000000
 -0.416667  0.333333  0.041667     48.000000
 -0.395833  0.333333  0.041667     48.000000
 -0.375000  0.333333  0.041667     48.000000
 -0.354167  0.333333  0.041667     48.000000
 -0.333333  0.333333  0.041667     48.000000
 -0.312500  0.333333  0.041667     48.000000
 -0.291667  0.333333  0.041667     24.000000
  0.395833  0.354167  0.041667     24.000000
  0.416667  0.354167  0.041667     48.000000
  0.437500  0.354167  0.041667     48.000000
  0.458333  0.354167  0.041667     48.000000
  0.479167  0.354167  0.041667     48.000000
  0.500000  0.354167  0.041667     48.000000
 -0.479167  0.354167  0.041667     48.000000
 -0.458333  0.354167  0.041667     48.000000
 -0.437500  0.354167  0.041667     48.000000
 -0.416667  0.354167  0.041667     48.000000
 -0.395833  0.354167  0.041667     48.000000
 -0.375000  0.354167  0.041667     48.000000
 -0.354167  0.354167  0.041667     48.000000
 -0.333333  0.354167  0.041667     48.000000
 -0.312500  0.354167  0.041667     24.000000
  0.416667  0.375000  0.041667     24.000000
  0.437500  0.375000  0.041667     48.000000
  0.458333  0.375000  0.041667     48.000000
  0.479167  0.375000  0.041667     48.000000
  0.500000  0.375000  0.041667     48.000000
 -0.479167  0.375000  0.041667     48.000000
 -0.458333  0.375000  0.041667     48.000000
 -0.437500  0.375000  0.041667     48.000000
 -0.416667  0.375000  0.041667     48.000000
 -0.395833  0.375000  0.041667     48.000000
 -0.375000  0.375000  0.041667     48.000000
 -0.354167  0.375000  0.041667     48.000000
 -0.333333  0.375000  0.041667     24.000000
  0.437500  0.395833  0.041667     24.000000
  0.458333  0.395833  0.041667     48.000000
  0.479167  0.395833  0.041667     48.000000
  0.500000  0.395833  0.041667     48.000000
 -0.479167  0.395833  0.041667     48.000000
 -0.458333  0.395833  0.041667     48.000000
 -0.437500  0.395833  0.041667     48.000000
 -0.416667  0.395833  0.041667     48.000000
 -0.395833  0.395833  0.041667     48.000000
 -0.375000  0.395833  0.041667     48.000000
 -0.354167  0.395833  0.041667     24.000000
  0.458333  0.416667  0.041667     24.000000
  0.479167  0.416667  0.041667     48.000000
  0.500000  0.416667  0.041667     48.000000
 -0.479167  0.416667  0.041667     48.000000
 -0.458333  0.416667  0.041667     48.000000
 -0.437500  0.416667  0.041667     48.000000
 -0.416667  0.416667  0.041667     48.000000
 -0.395833  0.416667  0.041667     48.000000
 -0.375000  0.416667  0.041667     24.000000
  0.479167  0.437500  0.041667     24.000000
  0.500000  0.437500  0.041667     48.000000
 -0.479167  0.437500  0.041667     48.000000
 -0.458333  0.437500  0.041667     48.000000
 -0.437500  0.437500  0.041667     48.000000
 -0.416667  0.437500  0.041667     48.000000
 -0.395833  0.437500  0.041667     24.000000
  0.500000  0.458333  0.041667     24.000000
 -0.479167  0.458333  0.041667     48.000000
 -0.458333  0.458333  0.041667     48.000000
 -0.437500  0.458333  0.041667     48.000000
 -0.416667  0.458333  0.041667     24.000000
 -0.479167  0.479167  0.041667     24.000000
 -0.458333  0.479167  0.041667     48.000000
 -0.437500  0.479167  0.041667     24.000000
 -0.458333  0.500000  0.041667     12.000000
  0.187500  0.125000  0.062500     24.000000
  0.208333  0.125000  0.062500     48.000000
  0.229167  0.125000  0.062500     48.000000
  0.250000  0.125000  0.062500     48.000000
  0.270833  0.125000  0.062500     48.000000
  0.291667  0.125000  0.062500     48.000000
  0.312500  0.125000  0.062500     48.000000
  0.333333  0.125000  0.062500     48.000000
  0.354167  0.125000  0.062500     48.000000
  0.375000  0.125000  0.062500     48.000000
  0.395833  0.125000  0.062500     48.000000
  0.416667  0.125000  0.062500     48.000000
  0.437500  0.125000  0.062500     48.000000
  0.458333  0.125000  0.062500     48.000000
  0.479167  0.125000  0.062500     48.000000
  0.500000  0.125000  0.062500     48.000000
 -0.479167  0.125000  0.062500     48.000000
 -0.458333  0.125000  0.062500     48.000000
 -0.437500  0.125000  0.062500     24.000000
  0.208333  0.145833  0.062500     24.000000
  0.229167  0.145833  0.062500     48.000000
  0.250000  0.145833  0.062500     48.000000
  0.270833  0.145833  0.062500     48.000000
  0.291667  0.145833  0.062500     48.000000
  0.312500  0.145833  0.062500     48.000000
  0.333333  0.145833  0.062500     48.000000
  0.354167  0.145833  0.062500     48.000000
  0.375000  0.145833  0.062500     48.000000
  0.395833  0.145833  0.062500     48.000000
  0.416667  0.145833  0.062500     48.000000
  0.437500  0.145833  0.062500     48.000000
  0.458333  0.145833  0.062500     48.000000
  0.479167  0.145833  0.062500     48.000000
  0.500000  0.145833  0.062500     48.000000
 -0.479167  0.145833  0.062500     48.000000
 -0.458333  0.145833  0.062500     48.000000
 -0.437500  0.145833  0.062500     48.000000
 -0.416667  0.145833  0.062500     48.000000
 -0.395833  0.145833  0.062500     48.000000
 -0.375000  0.145833  0.062500     48.000000
 -0.354167  0.145833  0.062500     48.000000
 -0.333333  0.145833  0.062500     48.000000
 -0.312500  0.145833  0.062500     48.000000
 -0.291667  0.145833  0.062500     48.000000
 -0.270833  0.145833  0.062500     48.000000
 -0.250000  0.145833  0.062500     48.000000
 -0.229167  0.145833  0.062500     48.000000
 -0.208333  0.145833  0.062500     48.000000
 -0.187500  0.145833  0.062500     48.000000
 -0.166667  0.145833  0.062500     48.000000
 -0.145833  0.145833  0.062500     48.000000
 -0.125000  0.145833  0.062500     48.000000
 -0.104167  0.145833  0.062500     48.000000
 -0.083333  0.145833  0.062500     24.000000
  0.229167  0.166667  0.062500     24.000000
  0.250000  0.166667  0.062500     48.000000
  0.270833  0.166667  0.062500     48.000000
  0.291667  0.166667  0.062500     48.000000
  0.312500  0.166667  0.062500     48.000000
  0.333333  0.166667  0.062500     48.000000
  0.354167  0.166667  0.062500     48.000000
  0.375000  0.166667  0.062500     48.000000
  0.395833  0.166667  0.062500     48.000000
  0.416667  0.166667  0.062500     48.000000
  0.437500  0.166667  0.062500     48.000000
  0.458333  0.166667  0.062500     48.000000
  0.479167  0.166667  0.062500     48.000000
  0.500000  0.166667  0.062500     48.000000
 -0.479167  0.166667  0.062500     48.000000
 -0.458333  0.166667  0.062500     48.000000
 -0.437500  0.166667  0.062500     48.000000
 -0.416667  0.166667  0.062500     48.000000
 -0.395833  0.166667  0.062500     48.000000
 -0.375000  0.166667  0.062500     48.000000
 -0.354167  0.166667  0.062500     48.000000
 -0.333333  0.166667  0.062500     48.000000
 -0.312500  0.166667  0.062500     48.000000
 -0.291667  0.166667  0.062500     48.000000
 -0.270833  0.166667  0.062500     48.000000
 -0.250000  0.166667  0.062500     48.000000
 -0.229167  0.166667  0.062500     48.000000
 -0.208333  0.166667  0.062500     48.000000
 -0.187500  0.166667  0.062500     48.000000
 -0.166667  0.166667  0.062500     48.000000
 -0.145833  0.166667  0.062500     48.000000
 -0.125000  0.166667  0.062500     48.000000
 -0.104167  0.166667  0.062500     24.000000
  0.250000  0.187500  0.062500     24.000000
  0.270833  0.187500  0.062500     48.000000
  0.291667  0.187500  0.062500     48.000000
  0.312500  0.187500  0.062500     48.000000
  0.333333  0.187500  0.062500     48.000000
  0.354167  0.187500  0.062500     48.000000
  0.375000  0.187500  0.062500     48.000000
  0.395833  0.187500  0.062500     48.000000
  0.416667  0.187500  0.062500     48.000000
  0.437500  0.187500  0.062500     48.000000
  0.458333  0.187500  0.062500     48.000000
  0.479167  0.187500  0.062500     48.000000
  0.500000  0.187500  0.062500     48.000000
 -0.479167  0.187500  0.062500     48.000000
 -0.458333  0.187500  0.062500     48.000000
 -0.437500  0.187500  0.062500     48.000000
 -0.416667  0.187500  0.062500     48.000000
 -0.395833  0.187500  0.062500     48.000000
 -0.375000  0.187500  0.062500     48.000000
 -0.354167  0.187500  0.062500     48.000000
 -0.333333  0.187500  0.062500     48.000000
 -0.312500  0.187500  0.062500     48.000000
 -0.291667  0.187500  0.062500     48.000000
 -0.270833  0.187500  0.062500     48.000000
 -0.250000  0.187500  0.062500     48.000000
 -0.229167  0.187500  0.062500     48.000000
 -0.208333  0.187500  0.062500     48.000000
 -0.187500  0.187500  0.062500     48.000000
 -0.166667  0.187500  0.062500     48.000000
 -0.145833  0.187500  0.062500     48.000000
 -0.125000  0.187500  0.062500     24.000000
  0.270833  0.208333  0.062500     24.000000
[...]
      7      10.7991      0.00000
      8      12.7664      0.00000
      9      13.9997      0.00000
     10      31.3303      0.00000
     11      31.3325      0.00000
     12      34.7287      0.00000
     13      39.4934      0.00000
     14      48.0389      0.00000
     15      50.5614      0.00000
     16      53.4687      0.00000

 k-point *** :      -0.3333    0.4583    0.2083
  band No.  band energies     occupation 
      1      -0.4574      2.00000
      2      -0.0902      2.00000
      3       0.4571      2.00000
      4       1.5115      2.00000
      5       2.1535      2.00000
      6       8.0037      0.00000
      7      11.2764      0.00000
      8      12.7101      0.00000
      9      13.1134      0.00000
     10      30.0406      0.00000
     11      31.8127      0.00000
     12      34.8942      0.00000
     13      40.0271      0.00000
     14      49.8705      0.00000
     15      50.6957      0.00000
     16      53.9691      0.00000

 k-point *** :      -0.3125    0.4583    0.2083
  band No.  band energies     occupation 
      1      -0.4367      2.00000
      2      -0.0330      2.00000
      3       0.3925      2.00000
      4       1.4848      2.00000
      5       2.1669      2.00000
      6       8.5693      0.00000
      7      10.8165      0.00000
      8      12.4864      0.00000
      9      12.9993      0.00000
     10      30.5032      0.00000
     11      32.3188      0.00000
     12      34.4846      0.00000
     13      39.2344      0.00000
     14      50.1300      0.00000
     15      51.1951      0.00000
     16      54.1944      0.00000

 k-point *** :      -0.2917    0.4583    0.2083
  band No.  band energies     occupation 
      1      -0.4178      2.00000
      2       0.0256      2.00000
      3       0.3239      2.00000
      4       1.4649      2.00000
      5       2.1713      2.00000
      6       9.1240      0.00000
      7      10.2399      0.00000
      8      12.3354      0.00000
      9      13.0530      0.00000
     10      30.8105      0.00000
     11      32.8736      0.00000
     12      34.0764      0.00000
     13      38.6436      0.00000
     14      50.0122      0.00000
     15      51.6639      0.00000
     16      54.1536      0.00000

 k-point *** :      -0.2708    0.4583    0.2083
  band No.  band energies     occupation 
      1      -0.4007      2.00000
      2       0.0847      2.00000
      3       0.2520      2.00000
      4       1.4535      2.00000
      5       2.1663      2.00000
      6       9.5680      0.00000
      7       9.6937      0.00000
      8      12.2744      0.00000
      9      13.2118      0.00000
     10      31.0341      0.00000
     11      32.9890      0.00000
     12      34.0199      0.00000
     13      38.3295      0.00000
     14      49.7020      0.00000
     15      51.7285      0.00000
     16      54.1353      0.00000

 k-point *** :      -0.2500    0.4583    0.2083
  band No.  band energies     occupation 
      1      -0.3853      2.00000
      2       0.1441      2.00000
      3       0.1784      2.00000
      4       1.4507      2.00000
      5       2.1529      2.00000
      6       8.9980      0.00000
      7      10.0682      0.00000
      8      12.3625      0.00000
      9      13.4367      0.00000
     10      31.2054      0.00000
     11      32.4912      0.00000
     12      34.4085      0.00000
     13      38.3683      0.00000
     14      49.2061      0.00000
     15      51.4206      0.00000
     16      54.2125      0.00000

 k-point *** :      -0.3125    0.4792    0.2083
  band No.  band energies     occupation 
      1      -0.4746      2.00000
      2      -0.0976      2.00000
      3       0.4915      2.00000
      4       1.5076      2.00000
      5       2.1804      2.00000
      6       8.5744      0.00000
      7      11.1951      0.00000
      8      12.0539      0.00000
      9      13.0198      0.00000
     10      29.9896      0.00000
     11      31.9904      0.00000
     12      34.9945      0.00000
     13      39.5995      0.00000
     14      50.9333      0.00000
     15      51.3178      0.00000
     16      53.8930      0.00000

 k-point *** :      -0.2917    0.4792    0.2083
  band No.  band energies     occupation 
      1      -0.4498      2.00000
      2      -0.0370      2.00000
      3       0.4130      2.00000
      4       1.4826      2.00000
      5       2.1846      2.00000
      6       9.0329      0.00000
      7      10.7586      0.00000
      8      11.9633      0.00000
      9      12.9403      0.00000
     10      30.4754      0.00000
     11      32.5701      0.00000
     12      34.3771      0.00000
     13      38.9668      0.00000
     14      50.8095      0.00000
     15      52.0939      0.00000
     16      53.3789      0.00000

 k-point *** :      -0.2708    0.4792    0.2083
  band No.  band energies     occupation 
      1      -0.4250      2.00000
      2       0.0250      2.00000
      3       0.3322      2.00000
      4       1.4644      2.00000
      5       2.1798      2.00000
      6       9.4068      0.00000
      7      10.2040      0.00000
      8      12.0267      0.00000
      9      13.0274      0.00000
     10      30.8110      0.00000
     11      33.2650      0.00000
     12      33.7210      0.00000
     13      38.5306      0.00000
     14      50.3767      0.00000
     15      52.2107      0.00000
     16      53.5286      0.00000

 k-point *** :      -0.2917    0.5000    0.2083
  band No.  band energies     occupation 
      1      -0.4809      2.00000
      2      -0.1002      2.00000
      3       0.5025      2.00000
      4       1.5059      2.00000
      5       2.1893      2.00000
      6       8.8220      0.00000
      7      11.1677      0.00000
      8      11.7655      0.00000
      9      12.9967      0.00000
     10      29.9717      0.00000
     11      32.0487      0.00000
     12      35.0238      0.00000
     13      39.4465      0.00000
     14      51.0124      0.00000
     15      52.6013      0.00000
     16      52.8276      0.00000

 k-point *** :      -0.3125    0.4583    0.2292
  band No.  band energies     occupation 
      1      -0.4054      2.00000
      2       0.0377      2.00000
      3       0.2936      2.00000
      4       1.4683      2.00000
      5       2.1532      2.00000
      6       8.4920      0.00000
      7      10.6624      0.00000
      8      12.6382      0.00000
      9      13.1351      0.00000
     10      31.2463      0.00000
     11      31.9665      0.00000
     12      34.3776      0.00000
     13      38.9562      0.00000
     14      49.5447      0.00000
     15      51.0583      0.00000
     16      54.0792      0.00000

 k-point *** :      -0.2917    0.4583    0.2292
  band No.  band energies     occupation 
      1      -0.4015      2.00000
      2       0.1009      2.00000
      3       0.2344      2.00000
      4       1.4552      2.00000
      5       2.1668      2.00000
      6       9.0829      0.00000
      7      10.2257      0.00000
      8      12.5190      0.00000
      9      12.9280      0.00000
     10      31.6176      0.00000
     11      32.1937      0.00000
     12      34.1491      0.00000
     13      38.4281      0.00000
     14      49.9701      0.00000
     15      51.4090      0.00000
     16      54.1634      0.00000

 k-point *** :      -0.2708    0.4583    0.2292
  band No.  band energies     occupation 
      1      -0.4007      2.00000
      2       0.1477      2.00000
      3       0.1881      2.00000
      4       1.4506      2.00000
      5       2.1711      2.00000
      6       9.5901      0.00000
      7       9.7556      0.00000
      8      12.5067      0.00000
      9      12.8407      0.00000
     10      31.6843      0.00000
     11      32.3749      0.00000
     12      34.0207      0.00000
     13      38.2381      0.00000
     14      50.1006      0.00000
     15      51.5739      0.00000
     16      54.1382      0.00000

 k-point *** :      -0.2917    0.4792    0.2292
  band No.  band energies     occupation 
      1      -0.4261      2.00000
      2       0.0325      2.00000
      3       0.3223      2.00000
      4       1.4661      2.00000
      5       2.1800      2.00000
      6       9.0989      0.00000
      7      10.5792      0.00000
      8      12.2564      0.00000
      9      12.7333      0.00000
     10      31.1937      0.00000
     11      32.5484      0.00000
     12      33.9637      0.00000
     13      38.6201      0.00000
     14      51.0345      0.00000
     15      51.3396      0.00000
     16      53.7198      0.00000

 k-point *** :      -0.2708    0.4792    0.2292
  band No.  band energies     occupation 
      1      -0.4166      2.00000
      2       0.0997      2.00000
      3       0.2501      2.00000
      4       1.4544      2.00000
      5       2.1846      2.00000
      6       9.5888      0.00000
      7      10.1666      0.00000
      8      12.1634      0.00000
      9      12.6630      0.00000
     10      31.6699      0.00000
     11      32.8051      0.00000
     12      33.5056      0.00000
     13      38.2535      0.00000
     14      51.0917      0.00000
     15      51.8558      0.00000
     16      53.2981      0.00000

 k-point *** :      -0.2500    0.4792    0.2292
  band No.  band energies     occupation 
      1      -0.4085      2.00000
      2       0.1670      2.00000
      3       0.1759      2.00000
      4       1.4508      2.00000
      5       2.1799      2.00000
      6       9.6436      0.00000
      7       9.9827      0.00000
      8      12.2422      0.00000
      9      12.7410      0.00000
     10      31.9357      0.00000
     11      32.4380      0.00000
     12      33.6943      0.00000
     13      38.1811      0.00000
     14      50.7129      0.00000
     15      51.7709      0.00000
     16      53.6050      0.00000

 k-point *** :      -0.2708    0.5000    0.2292
  band No.  band energies     occupation 
      1      -0.4330      2.00000
      2       0.0308      2.00000
      3       0.3324      2.00000
      4       1.4651      2.00000
      5       2.1892      2.00000
      6       9.3772      0.00000
      7      10.5513      0.00000
      8      11.9667      0.00000
      9      12.6871      0.00000
     10      31.1764      0.00000
     11      32.8724      0.00000
     12      33.7033      0.00000
     13      38.5058      0.00000
     14      51.4316      0.00000
     15      52.3546      0.00000
     16      52.6029      0.00000

 k-point *** :      -0.2500    0.5000    0.2500
  band No.  band energies     occupation 
      1      -0.4162      2.00000
      2       0.1750      2.00000
      3       0.1751      2.00000
      4       1.4507      2.00000
      5       2.1892      2.00000
      6       9.9540      0.00000
      7       9.9542      0.00000
      8      12.0914      0.00000
      9      12.5260      0.00000
     10      32.4205      0.00000
     11      32.4206      0.00000
     12      33.2176      0.00000
     13      38.1216      0.00000
     14      51.8822      0.00000
     15      51.8825      0.00000
     16      52.6034      0.00000


--------------------------------------------------------------------------------------------------------


 soft charge-density along one line, spin component           1
         0         1         2         3         4         5         6         7         8         9
 total charge-density along one line
 
 pseudopotential strength for first ion, spin component:           1
 -6.480   0.000   0.000   0.000  -0.000  -0.237   0.000  -0.000
  0.000  -6.480  -0.000   0.000   0.000   0.000  -0.237   0.000
  0.000  -0.000  -6.462  -0.000  -0.000  -0.000   0.000  -0.245
  0.000   0.000  -0.000  -6.480  -0.000   0.000   0.000   0.000
 -0.000   0.000  -0.000  -0.000  -6.462   0.000  -0.000   0.000
 -0.237   0.000  -0.000   0.000   0.000   1.684  -0.000   0.000
  0.000  -0.237   0.000   0.000  -0.000  -0.000   1.684  -0.000
 -0.000   0.000  -0.245   0.000   0.000   0.000  -0.000   1.687
  0.000   0.000   0.000  -0.237   0.000  -0.000  -0.000  -0.000
  0.000  -0.000   0.000   0.000  -0.245  -0.000   0.000  -0.000
  0.000   0.000  -0.000   0.000  -0.000   0.000   0.000  -0.000
 -0.000  -0.000   0.000  -0.000   0.000   0.000   0.000  -0.000
  0.000   0.000  -0.000  -0.000  -0.000  -0.000  -0.000  -0.000
 -0.000   0.000   0.000   0.000   0.000  -0.000  -0.000  -0.000
  0.000  -0.000  -0.000   0.000   0.000  -0.000  -0.000   0.000
 -0.000  -0.000   0.000   0.000  -0.000   0.000   0.000   0.000
  0.000   0.000  -0.000  -0.000  -0.000  -0.000   0.000   0.000
  0.000   0.000   0.000  -0.000  -0.000   0.000  -0.000  -0.000
 total augmentation occupancy for first ion, spin component:           1
  1.871   0.002   0.082  -0.014   0.030  -0.045  -0.145   0.077  -0.072  -0.022  -0.264   0.100  -0.000   0.000   0.000  -0.000
  0.002   1.858   0.010   0.014  -0.045  -0.145  -0.217   0.040   0.110  -0.052   0.185  -0.067   0.000  -0.000  -0.000   0.000
  0.082   0.010   1.909   0.056   0.025   0.077   0.040  -0.086   0.026   0.196   0.038  -0.033  -0.000  -0.000   0.000  -0.000
 -0.014   0.014   0.056   2.010   0.074  -0.072   0.110   0.026   0.232   0.067   0.282  -0.106  -0.000   0.000  -0.000  -0.000
  0.030  -0.045   0.025   0.074   1.934  -0.022  -0.052   0.196   0.067  -0.015   0.170  -0.064   0.000  -0.000  -0.000   0.000
 -0.045  -0.145   0.077  -0.072  -0.022   0.066  -0.001  -0.033  -0.019  -0.011  -0.149   0.028  -0.000  -0.000   0.000   0.000
 -0.145  -0.217   0.040   0.110  -0.052  -0.001   0.079  -0.009   0.012   0.024   0.094  -0.022   0.000  -0.000  -0.000  -0.000
  0.077   0.040  -0.086   0.026   0.196  -0.033  -0.009   0.069  -0.010   0.020   0.058  -0.011  -0.000   0.000  -0.000   0.000
 -0.072   0.110   0.026   0.232   0.067  -0.019   0.012  -0.010   0.085  -0.013   0.152  -0.035  -0.000   0.000  -0.000  -0.000
 -0.022  -0.052   0.196   0.067  -0.015  -0.011   0.024   0.020  -0.013   0.074   0.090  -0.024   0.000   0.000   0.000   0.000
 -0.264   0.185   0.038   0.282   0.170  -0.149   0.094   0.058   0.152   0.090   1.209  -0.355   0.000   0.000  -0.000   0.000
  0.100  -0.067  -0.033  -0.106  -0.064   0.028  -0.022  -0.011  -0.035  -0.024  -0.355   0.152   0.000   0.000   0.000  -0.000
 -0.000   0.000  -0.000  -0.000   0.000  -0.000   0.000  -0.000  -0.000   0.000   0.000   0.000   0.279  -0.081   0.114  -0.019
  0.000  -0.000  -0.000   0.000  -0.000  -0.000  -0.000   0.000   0.000   0.000   0.000   0.000  -0.081   0.154  -0.120   0.005
  0.000  -0.000   0.000  -0.000  -0.000   0.000  -0.000  -0.000  -0.000   0.000  -0.000   0.000   0.114  -0.120   0.139  -0.008
 -0.000   0.000  -0.000  -0.000   0.000   0.000  -0.000   0.000  -0.000   0.000   0.000  -0.000  -0.019   0.005  -0.008   0.002
  0.000  -0.000   0.000   0.000  -0.000  -0.000   0.000   0.000   0.000   0.000   0.000   0.000   0.005  -0.011   0.009  -0.000
 -0.000  -0.000   0.000  -0.000  -0.000   0.000   0.000   0.000  -0.000   0.000  -0.000   0.000  -0.008   0.009  -0.010   0.001


------------------------ aborting loop because EDIFF is reached ----------------------------------------


 


 total charge     
 
# of ion     s       p       d       tot
----------------------------------------
  1        0.455   0.383   9.200  10.037
 


--------------------------------------------------------------------------------------------------------


    CHARGE:  VPU time    0.04: CPU time    0.04
    FORLOC:  VPU time    0.00: CPU time    0.00
    FORNL :  VPU time    0.08: CPU time    0.08
    STRESS:  VPU time    0.99: CPU time    0.99
    FORCOR:  VPU time    0.00: CPU time    0.00
    FORHAR:  VPU time    0.00: CPU time    0.00
    MIXING:  VPU time    0.00: CPU time    0.00


--------------------------------------------------------------------------------------------------------



  FREE ENERGIE OF THE ION-ELECTRON SYSTEM (eV)
  ---------------------------------------------------
  free  energy   TOTEN  =        -3.723617 eV

  energy  without entropy=       -3.723617  energy(sigma->0) =       -3.723617
 

  FORCE on cell =-STRESS in cart. coord.  units (eV/reduce length):
  Direction    X        Y        Z        XY       YZ       ZX
  --------------------------------------------------------------------------------------
  Alpha Z    107.26    107.26    107.26
  Ewald     -367.80   -367.80   -367.80      0.00      0.00      0.00
  Hartree    101.83    101.83    101.83      0.00      0.00      0.00
  E(xc)      -62.94    -62.94    -62.94      0.00      0.00      0.00
  Local      122.78    122.78    122.78      0.00      0.00      0.00
  n-local    -36.15    -37.50    -36.79     -0.91      0.65      1.05
  augment     56.60     56.60     56.60     -0.00     -0.00     -0.00
  Kinetic     77.26     81.53     78.09      2.88     -2.39     -2.25
  -------------------------------------------------------------------------------------
  Total       -0.12     -0.12     -0.12     -0.00      0.00     -0.00
  in kB      -16.58    -16.58    -16.58     -0.00      0.00     -0.00
  external pressure =      -16.58 kB  Pullay stress =        0.00 kB


 VOLUME and BASIS-vectors are now :
 -----------------------------------------------------------------------------
  energy-cutoff  :      273.25
  volume of cell :       11.86
      direct lattice vectors                 reciprocal lattice vectors
     1.810000000  1.810000000  0.000000000     0.276243094  0.276243094 -0.276243094
     0.000000000  1.810000000  1.810000000    -0.276243094  0.276243094  0.276243094
     1.810000000  0.000000000  1.810000000     0.276243094 -0.276243094  0.276243094

  length of vectors
     2.559726548  2.559726548  2.559726548     0.478467074  0.478467074  0.478467074


 FORCES acting on ions
    electron-ion (+dipol)            ewald-force                    non-local-force                 convergence-correction
 -----------------------------------------------------------------------------------------------
   -.214E-13 0.465E-14 -.336E-13   0.300E-14 0.640E-15 -.775E-16   -.107E-24 -.776E-25 -.159E-24   -.113E-13 -.894E-14 -.186E-13
 -----------------------------------------------------------------------------------------------
   -.214E-13 0.465E-14 -.336E-13   0.300E-14 0.640E-15 -.775E-16   -.107E-24 -.776E-25 -.159E-24   -.113E-13 -.894E-14 -.186E-13
 
 
 POSITION                                       TOTAL-FORCE (eV/Angst)
 -----------------------------------------------------------------------------------
      0.00000      0.00000      0.00000         0.000000     -0.000000     -0.000000
 -----------------------------------------------------------------------------------
    total drift:                               -0.000000     -0.000000     -0.000000


--------------------------------------------------------------------------------------------------------



 mean value of Nose-termostat <S>:     1.000 mean value of <T> :     0.000
 mean temperature <T/S>/<1/S>  :     0.000

 writing wavefunctions
     LOOP+:  VPU time   20.75: CPU time   21.22
 


 total charge     
 
# of ion     s       p       d       tot
----------------------------------------
  1        0.455   0.383   9.200  10.037
 
 BZINTS: Fermi energy:  3.751112; 11.000000 electrons
         Band energy:   7.402502;  BLOECHL correction: -0.003493
  
  
 General timing and accounting informations for this job:
 ========================================================
  
                  Total CPU time used (sec):       46.255
                            User time (sec):       32.486
                          System time (sec):       13.769
                         Elapsed time (sec):       46.878
  
                   Maximum memory used (kb):      291952.
                   Average memory used (kb):           0.
  
                          Minor page faults:        68708
                          Major page faults:            0
                 Voluntary context switches:         1309
